 Entering Gaussian System, Link 0=/apl/gaussian/16c02/g16/._.g16
 Initial command:
 /apl/gaussian/16c02/g16/l1.exe "/lwork/users/pa7/10974348.ccpbs1/gaussian/Gau-3646583.inp" -scrdir="/lwork/users/pa7/10974348.ccpbs1/gaussian/"
 Default CPUs for threads: 24,25,26,27,28,29,30,31
 Default is to use a total of   8 processors:
                                8 via shared-memory
                                1 via Linda
 Entering Link 1 = /apl/gaussian/16c02/g16/l1.exe PID=   3646584.
  
 Copyright (c) 1988-2021, Gaussian, Inc.  All Rights Reserved.
  
 This is part of the Gaussian(R) 16 program.  It is based on
 the Gaussian(R) 09 system (copyright 2009, Gaussian, Inc.),
 the Gaussian(R) 03 system (copyright 2003, Gaussian, Inc.),
 the Gaussian(R) 98 system (copyright 1998, Gaussian, Inc.),
 the Gaussian(R) 94 system (copyright 1995, Gaussian, Inc.),
 the Gaussian 92(TM) system (copyright 1992, Gaussian, Inc.),
 the Gaussian 90(TM) system (copyright 1990, Gaussian, Inc.),
 the Gaussian 88(TM) system (copyright 1988, Gaussian, Inc.),
 the Gaussian 86(TM) system (copyright 1986, Carnegie Mellon
 University), and the Gaussian 82(TM) system (copyright 1983,
 Carnegie Mellon University). Gaussian is a federally registered
 trademark of Gaussian, Inc.
  
 This software contains proprietary and confidential information,
 including trade secrets, belonging to Gaussian, Inc.
  
 This software is provided under written license and may be
 used, copied, transmitted, or stored only in accord with that
 written license.
  
 The following legend is applicable only to US Government
 contracts under FAR:
  
                    RESTRICTED RIGHTS LEGEND
  
 Use, reproduction and disclosure by the US Government is
 subject to restrictions as set forth in subparagraphs (a)
 and (c) of the Commercial Computer Software - Restricted
 Rights clause in FAR 52.227-19.
  
 Gaussian, Inc.
 340 Quinnipiac St., Bldg. 40, Wallingford CT 06492
  
  
 ---------------------------------------------------------------
 Warning -- This program may not be used in any manner that
 competes with the business of Gaussian, Inc. or will provide
 assistance to any competitor of Gaussian, Inc.  The licensee
 of this program is prohibited from giving any competitor of
 Gaussian, Inc. access to this program.  By using this program,
 the user acknowledges that Gaussian, Inc. is engaged in the
 business of creating and licensing software in the field of
 computational chemistry and represents and warrants to the
 licensee that it is not a competitor of Gaussian, Inc. and that
 it will not use this program in any manner prohibited above.
 ---------------------------------------------------------------
  

 Cite this work as:
 Gaussian 16, Revision C.02,
 M. J. Frisch, G. W. Trucks, H. B. Schlegel, G. E. Scuseria, 
 M. A. Robb, J. R. Cheeseman, G. Scalmani, V. Barone, 
 G. A. Petersson, H. Nakatsuji, X. Li, M. Caricato, A. V. Marenich, 
 J. Bloino, B. G. Janesko, R. Gomperts, B. Mennucci, H. P. Hratchian, 
 J. V. Ortiz, A. F. Izmaylov, J. L. Sonnenberg, D. Williams-Young, 
 F. Ding, F. Lipparini, F. Egidi, J. Goings, B. Peng, A. Petrone, 
 T. Henderson, D. Ranasinghe, V. G. Zakrzewski, J. Gao, N. Rega, 
 G. Zheng, W. Liang, M. Hada, M. Ehara, K. Toyota, R. Fukuda, 
 J. Hasegawa, M. Ishida, T. Nakajima, Y. Honda, O. Kitao, H. Nakai, 
 T. Vreven, K. Throssell, J. A. Montgomery, Jr., J. E. Peralta, 
 F. Ogliaro, M. J. Bearpark, J. J. Heyd, E. N. Brothers, K. N. Kudin, 
 V. N. Staroverov, T. A. Keith, R. Kobayashi, J. Normand, 
 K. Raghavachari, A. P. Rendell, J. C. Burant, S. S. Iyengar, 
 J. Tomasi, M. Cossi, J. M. Millam, M. Klene, C. Adamo, R. Cammi, 
 J. W. Ochterski, R. L. Martin, K. Morokuma, O. Farkas, 
 J. B. Foresman, and D. J. Fox, Gaussian, Inc., Wallingford CT, 2019.
 
 ******************************************
 Gaussian 16:  ES64L-G16RevC.02  7-Dec-2021
                27-Jan-2026 
 ******************************************
 %Chk=h2o_b3lyp_gen_def2
 %mem=9600MB
 SetSPE:  set environment variable "OMP_PROC_BIND" = "true"
 SetSPE:  set environment variable "OMP_PLACES" = "{24},{25},{26},{27},{28},{29},{30},{31}"
 -----------------------------------------------------------
 #T B3LYP/GEN SCF=Tight Opt=(z-matrix,Tight) Freq Symm=Loose
 -----------------------------------------------------------
 ------------------------
 Gaussian Test Job of H2O
 ------------------------
 Symbolic Z-matrix:
 Charge =  0 Multiplicity = 1
 O
 H                    1    R2
 H                    1    R2       2    OHH
       Variables:
  R2                    0.9687                   
  OHH                 103.6544  -1        0.     
 

 GradGradGradGradGradGradGradGradGradGradGradGradGradGradGradGradGradGrad
 Initialization pass.
                       ----------------------------
                       !    Initial Parameters    !
                       ! (Angstroms and Degrees)  !
 ----------------------                            ----------------------
 !      Name          Value   Derivative information (Atomic Units)     !
 ------------------------------------------------------------------------
 !       R2          0.9687   estimate D2E/DX2                          !
 !       OHH       103.6544   Frozen                                    !
 ------------------------------------------------------------------------
 Number of steps in this run=     20 maximum allowed number of steps=    100.
 GradGradGradGradGradGradGradGradGradGradGradGradGradGradGradGradGradGrad

 ---------------------------------------------------------------------------------------------------
                            Z-MATRIX (ANGSTROMS AND DEGREES)
   CD    Cent   Atom    N1       Length/X        N2       Alpha/Y        N3        Beta/Z          J
 ---------------------------------------------------------------------------------------------------
      1      1  O 
      2      2  H        1   0.968700(     1)
      3      3  H        1   0.968700(     2)      2  103.654(     3)
 ---------------------------------------------------------------------------------------------------
                    Distance matrix (angstroms):
                    1          2          3
     1  O    0.000000
     2  H    0.968700   0.000000
     3  H    0.968700   1.523088   0.000000
 Framework group  C2V[C2(O),SGV(H2)]
 Deg. of freedom     2
                         Standard orientation:                         
 ---------------------------------------------------------------------
 Center     Atomic      Atomic             Coordinates (Angstroms)
 Number     Number       Type             X           Y           Z
 ---------------------------------------------------------------------
      1          8           0        0.000000   -0.000000    0.119738
      2          1           0       -0.000000    0.761544   -0.478953
      3          1           0       -0.000000   -0.761544   -0.478953
 ---------------------------------------------------------------------
 Rotational constants (GHZ):         787.6664800         432.3268439         279.1239564
    24 basis functions,    39 primitive gaussians,    25 cartesian basis functions
     5 alpha electrons        5 beta electrons
       nuclear repulsion energy         9.0878473278 Hartrees.
 NAtoms=    3 NActive=    3 NUniq=    2 SFac= 2.25D+00 NAtFMM=   60 NAOKFM=F Big=F
 ExpMin= 1.22D-01 ExpMax= 2.27D+03 ExpMxC= 3.41D+02 IAcc=3 IRadAn=         5 AccDes= 0.00D+00
 Harris functional with IExCor=  402 and IRadAn=       5 diagonalized for initial guess.
 HarFok:  IExCor=  402 AccDes= 0.00D+00 IRadAn=         5 IDoV= 1 UseB2=F ITyADJ=14
 ICtDFT=  3500011 ScaDFX=  1.000000  1.000000  1.000000  1.000000
 FoFCou: FMM=F IPFlag=           0 FMFlag=      100000 FMFlg1=           0
         NFxFlg=           0 DoJE=T BraDBF=F KetDBF=T FulRan=T
         wScrn=  0.000000 ICntrl=       500 IOpCl=  0 I1Cent=   200000004 NGrid=           0
         NMat0=    1 NMatS0=      1 NMatT0=    0 NMatD0=    1 NMtDS0=    0 NMtDT0=    0
 Petite list used in FoFCou.
 Initial guess orbital symmetries:
       Occupied  (A1) (A1) (B2) (A1) (B1)
       Virtual   (A1) (B2) (B2) (A1) (B1) (A1) (B2) (A1) (A2) (A1)
                 (B1) (B2) (B2) (A1) (B1) (A2) (A1) (A1) (B2)
 The electronic state of the initial guess is 1-A1.
 Integral accuracy reduced to 1.0D-05 until final iterations.
 Initial convergence to 1.0D-05 achieved.  Increase integral accuracy.
 SCF Done:  E(RB3LYP) =  -76.3582981457     A.U. after    9 cycles
            NFock=  9  Conv=0.10D-08     -V/T= 2.0070

 **********************************************************************

            Population analysis using the SCF Density.

 **********************************************************************

 Orbital symmetries:
       Occupied  (A1) (A1) (B2) (A1) (B1)
       Virtual   (A1) (B2) (B2) (A1) (A1) (B1) (B2) (A1) (A2) (A1)
                 (B1) (B2) (B2) (A1) (B1) (A2) (A1) (A1) (B2)
 The electronic state is 1-A1.
 Alpha  occ. eigenvalues --  -19.11965  -0.97845  -0.51184  -0.36664  -0.29133
 Alpha virt. eigenvalues --    0.04448   0.12340   0.55546   0.61676   0.91702
 Alpha virt. eigenvalues --    0.92045   1.00658   1.09396   1.34555   1.40303
 Alpha virt. eigenvalues --    1.54493   1.78097   2.19525   2.24148   2.95577
 Alpha virt. eigenvalues --    2.99680   3.18007   3.48503   3.81514
          Condensed to atoms (all electrons):
 Mulliken charges:
               1
     1  O   -0.297856
     2  H    0.148928
     3  H    0.148928
 Sum of Mulliken charges =  -0.00000
 Mulliken charges with hydrogens summed into heavy atoms:
               1
     1  O   -0.000000
 Electronic spatial extent (au):  <R**2>=             19.0412
 Charge=             -0.0000 electrons
 Dipole moment (field-independent basis, Debye):
    X=             -0.0000    Y=              0.0000    Z=             -1.9982  Tot=              1.9982
 Calling FoFJK, ICntrl=      2127 FMM=F ISym2X=1 I1Cent= 0 IOpClX= 0 NMat=1 NMatS=1 NMatT=0.

 GradGradGradGradGradGradGradGradGradGradGradGradGradGradGradGradGradGrad
 Step number   1 out of a maximum of   20
 All quantities printed in internal units (Hartrees-Bohrs-Radians)
 Second derivative matrix not updated -- first step.
 ITU=  0
     Eigenvalues ---    1.072871000.00000
 Linear search not attempted -- first point.
 Variable       Old X    -DE/DX   Delta X   Delta X   Delta X     New X
                                 (Linear)    (Quad)   (Total)
    R2        1.83058  -0.00455   0.00000  -0.00424  -0.00424   1.82634
   OHH        1.80911  -0.00182   0.00000   0.00000   0.00000   1.80911
         Item               Value     Threshold  Converged?
 Maximum Force            0.004547     0.000015     NO 
 RMS     Force            0.004547     0.000010     NO 
 Maximum Displacement     0.004238     0.000060     NO 
 RMS     Displacement     0.002997     0.000040     NO 
 GradGradGradGradGradGradGradGradGradGradGradGradGradGradGradGradGradGrad

 ---------------------------------------------------------------------------------------------------
                            Z-MATRIX (ANGSTROMS AND DEGREES)
   CD    Cent   Atom    N1       Length/X        N2       Alpha/Y        N3        Beta/Z          J
 ---------------------------------------------------------------------------------------------------
      1      1  O 
      2      2  H        1   0.966457(     1)
      3      3  H        1   0.966457(     2)      2  103.654(     3)
 ---------------------------------------------------------------------------------------------------
                    Distance matrix (angstroms):
                    1          2          3
     1  O    0.000000
     2  H    0.966457   0.000000
     3  H    0.966457   1.519561   0.000000
 Framework group  C2V[C2(O),SGV(H2)]
 Deg. of freedom     2
                         Standard orientation:                         
 ---------------------------------------------------------------------
 Center     Atomic      Atomic             Coordinates (Angstroms)
 Number     Number       Type             X           Y           Z
 ---------------------------------------------------------------------
      1          8           0        0.000000   -0.000000    0.119461
      2          1           0       -0.000000    0.759781   -0.477844
      3          1           0       -0.000000   -0.759781   -0.477844
 ---------------------------------------------------------------------
 Rotational constants (GHZ):         791.3264405         434.3356880         280.4209300
    24 basis functions,    39 primitive gaussians,    25 cartesian basis functions
     5 alpha electrons        5 beta electrons
       nuclear repulsion energy         9.1089365924 Hartrees.
 NAtoms=    3 NActive=    3 NUniq=    2 SFac= 2.25D+00 NAtFMM=   60 NAOKFM=F Big=F
 Initial guess from the checkpoint file:  "h2o_b3lyp_gen_def2.chk"
 B after Tr=     0.000000    0.000000    0.000000
         Rot=    1.000000   -0.000000   -0.000000    0.000000 Ang=   0.00 deg.
 Initial guess orbital symmetries:
       Occupied  (A1) (A1) (B2) (A1) (B1)
       Virtual   (A1) (B2) (B2) (A1) (A1) (B1) (B2) (A1) (A2) (A1)
                 (B1) (B2) (B2) (A1) (B1) (A2) (A1) (A1) (B2)
 SCF Done:  E(RB3LYP) =  -76.3583080859     A.U. after    7 cycles
            NFock=  7  Conv=0.11D-08     -V/T= 2.0069
 Calling FoFJK, ICntrl=      2127 FMM=F ISym2X=1 I1Cent= 0 IOpClX= 0 NMat=1 NMatS=1 NMatT=0.

 GradGradGradGradGradGradGradGradGradGradGradGradGradGradGradGradGradGrad
 Step number   2 out of a maximum of   20
 All quantities printed in internal units (Hartrees-Bohrs-Radians)
 Trust test= 1.03D+00 RLast= 4.24D-03 DXMaxT set to 3.00D-01
 ITU=  1  0
     Eigenvalues ---    1.041761000.00000
 Quartic linear search produced a step of  0.02964.
 Variable       Old X    -DE/DX   Delta X   Delta X   Delta X     New X
                                 (Linear)    (Quad)   (Total)
    R2        1.82634  -0.00013  -0.00013   0.00000  -0.00013   1.82621
   OHH        1.80911  -0.00156   0.00000   0.00000   0.00000   1.80911
         Item               Value     Threshold  Converged?
 Maximum Force            0.000132     0.000015     NO 
 RMS     Force            0.000132     0.000010     NO 
 Maximum Displacement     0.000126     0.000060     NO 
 RMS     Displacement     0.000089     0.000040     NO 
 GradGradGradGradGradGradGradGradGradGradGradGradGradGradGradGradGradGrad

 ---------------------------------------------------------------------------------------------------
                            Z-MATRIX (ANGSTROMS AND DEGREES)
   CD    Cent   Atom    N1       Length/X        N2       Alpha/Y        N3        Beta/Z          J
 ---------------------------------------------------------------------------------------------------
      1      1  O 
      2      2  H        1   0.966391(     1)
      3      3  H        1   0.966391(     2)      2  103.654(     3)
 ---------------------------------------------------------------------------------------------------
                    Distance matrix (angstroms):
                    1          2          3
     1  O    0.000000
     2  H    0.966391   0.000000
     3  H    0.966391   1.519457   0.000000
 Framework group  C2V[C2(O),SGV(H2)]
 Deg. of freedom     2
                         Standard orientation:                         
 ---------------------------------------------------------------------
 Center     Atomic      Atomic             Coordinates (Angstroms)
 Number     Number       Type             X           Y           Z
 ---------------------------------------------------------------------
      1          8           0        0.000000   -0.000000    0.119453
      2          1           0       -0.000000    0.759728   -0.477811
      3          1           0       -0.000000   -0.759728   -0.477811
 ---------------------------------------------------------------------
 Rotational constants (GHZ):         791.4352965         434.3954359         280.4595052
    24 basis functions,    39 primitive gaussians,    25 cartesian basis functions
     5 alpha electrons        5 beta electrons
       nuclear repulsion energy         9.1095630903 Hartrees.
 NAtoms=    3 NActive=    3 NUniq=    2 SFac= 2.25D+00 NAtFMM=   60 NAOKFM=F Big=F
 Initial guess from the checkpoint file:  "h2o_b3lyp_gen_def2.chk"
 B after Tr=     0.000000    0.000000    0.000000
         Rot=    1.000000   -0.000000   -0.000000    0.000000 Ang=   0.00 deg.
 Initial guess orbital symmetries:
       Occupied  (A1) (A1) (B2) (A1) (B1)
       Virtual   (A1) (B2) (B2) (A1) (A1) (B1) (B2) (A1) (A2) (A1)
                 (B1) (B2) (B2) (A1) (B1) (A2) (A1) (A1) (B2)
 SCF Done:  E(RB3LYP) =  -76.3583080942     A.U. after    5 cycles
            NFock=  5  Conv=0.42D-08     -V/T= 2.0069
 Calling FoFJK, ICntrl=      2127 FMM=F ISym2X=1 I1Cent= 0 IOpClX= 0 NMat=1 NMatS=1 NMatT=0.

 GradGradGradGradGradGradGradGradGradGradGradGradGradGradGradGradGradGrad
 Step number   3 out of a maximum of   20
 All quantities printed in internal units (Hartrees-Bohrs-Radians)
 Trust test= 9.92D-01 RLast= 1.26D-04 DXMaxT set to 3.00D-01
 ITU=  0  1  0
     Eigenvalues ---    1.050371000.00000
 Quartic linear search produced a step of -0.00004.
 Variable       Old X    -DE/DX   Delta X   Delta X   Delta X     New X
                                 (Linear)    (Quad)   (Total)
    R2        1.82621   0.00000   0.00000  -0.00000   0.00000   1.82621
   OHH        1.80911  -0.00155   0.00000   0.00000   0.00000   1.80911
         Item               Value     Threshold  Converged?
 Maximum Force            0.000000     0.000015     YES
 RMS     Force            0.000000     0.000010     YES
 Maximum Displacement     0.000000     0.000060     YES
 RMS     Displacement     0.000000     0.000040     YES
 Optimization completed.
    -- Stationary point found.
                       ----------------------------
                       !   Optimized Parameters   !
                       ! (Angstroms and Degrees)  !
 ----------------------                            ----------------------
 !      Name          Value   Derivative information (Atomic Units)     !
 ------------------------------------------------------------------------
 !       R2          0.9664   -DE/DX =    0.0                           !
 !       OHH       103.6544   -DE/DX =   -0.0016                        !
 ------------------------------------------------------------------------
 GradGradGradGradGradGradGradGradGradGradGradGradGradGradGradGradGradGrad

 ---------------------------------------------------------------------------------------------------
                            Z-MATRIX (ANGSTROMS AND DEGREES)
   CD    Cent   Atom    N1       Length/X        N2       Alpha/Y        N3        Beta/Z          J
 ---------------------------------------------------------------------------------------------------
      1      1  O 
      2      2  H        1   0.966391(     1)
      3      3  H        1   0.966391(     2)      2  103.654(     3)
 ---------------------------------------------------------------------------------------------------
                    Distance matrix (angstroms):
                    1          2          3
     1  O    0.000000
     2  H    0.966391   0.000000
     3  H    0.966391   1.519457   0.000000
 Framework group  C2V[C2(O),SGV(H2)]
 Deg. of freedom     2
                         Standard orientation:                         
 ---------------------------------------------------------------------
 Center     Atomic      Atomic             Coordinates (Angstroms)
 Number     Number       Type             X           Y           Z
 ---------------------------------------------------------------------
      1          8           0        0.000000   -0.000000    0.119453
      2          1           0       -0.000000    0.759728   -0.477811
      3          1           0       -0.000000   -0.759728   -0.477811
 ---------------------------------------------------------------------
 Rotational constants (GHZ):         791.4352965         434.3954359         280.4595052

 **********************************************************************

            Population analysis using the SCF Density.

 **********************************************************************

 Orbital symmetries:
       Occupied  (A1) (A1) (B2) (A1) (B1)
       Virtual   (A1) (B2) (B2) (A1) (A1) (B1) (B2) (A1) (A2) (A1)
                 (B1) (B2) (B2) (A1) (B1) (A2) (A1) (A1) (B2)
 The electronic state is 1-A1.
 Alpha  occ. eigenvalues --  -19.11932  -0.97944  -0.51269  -0.36681  -0.29151
 Alpha virt. eigenvalues --    0.04498   0.12400   0.55691   0.61887   0.91704
 Alpha virt. eigenvalues --    0.92049   1.00658   1.09401   1.34599   1.40250
 Alpha virt. eigenvalues --    1.54523   1.78343   2.20050   2.24616   2.95793
 Alpha virt. eigenvalues --    2.99915   3.18344   3.48757   3.81759
          Condensed to atoms (all electrons):
 Mulliken charges:
               1
     1  O   -0.295753
     2  H    0.147877
     3  H    0.147877
 Sum of Mulliken charges =   0.00000
 Mulliken charges with hydrogens summed into heavy atoms:
               1
     1  O    0.000000
 Electronic spatial extent (au):  <R**2>=             19.0098
 Charge=             -0.0000 electrons
 Dipole moment (field-independent basis, Debye):
    X=             -0.0000    Y=              0.0000    Z=             -1.9971  Tot=              1.9971
 Unable to Open any file for archive entry.
 1\1\GINC-CCC171\POpt\RB3LYP\Gen\H2O1\ROOT\27-Jan-2026\1\\#T B3LYP/GEN 
 SCF=Tight Opt=(z-matrix,Tight) Freq Symm=Loose\\Gaussian Test Job of H
 2O\\0,1\O\H,1,R2\H,1,R2,2,OHH\\R2=0.96639077\OHH=103.6544\\Version=ES6
 4L-G16RevC.02\State=1-A1\HF=-76.3583081\RMSD=4.159e-09\RMSF=5.988e-04\
 Dipole=0.6176928,0.,0.4856017\Quadrupole=0.3194697,-0.923364,0.6038943
 ,0.,-0.5854029,0.\PG=C02V [C2(O1),SGV(H2)]\\@
 The archive entry for this job was punched.


 Sacred cows make the best hamburger.
                               -- Mark Twain
 Job cpu time:       0 days  0 hours  0 minutes  9.4 seconds.
 Elapsed time:       0 days  0 hours  0 minutes  4.6 seconds.
 File lengths (MBytes):  RWF=      6 Int=      0 D2E=      0 Chk=      1 Scr=      1
 Normal termination of Gaussian 16 at Tue Jan 27 17:27:21 2026.
 Link1:  Proceeding to internal job step number  2.
 ------------------------------------------------------------------
 #T Geom=AllCheck Guess=TCheck SCRF=Check GenChk RB3LYP/ChkBas Freq
 ------------------------------------------------------------------
 Structure from the checkpoint file:  "h2o_b3lyp_gen_def2.chk"
 ------------------------
 Gaussian Test Job of H2O
 ------------------------
 Charge =  0 Multiplicity = 1
 Z-Matrix found in chk file.
 O
 H,1,R2
 H,1,R2,2,OHH
      Variables:
 R2=0.96639077
      Constants:
 OHH=103.6544
 Recover connectivity data from disk.

 GradGradGradGradGradGradGradGradGradGradGradGradGradGradGradGradGradGrad
 Initialization pass.
                       ----------------------------
                       !    Initial Parameters    !
                       ! (Angstroms and Degrees)  !
 ----------------------                            ----------------------
 !      Name          Value   Derivative information (Atomic Units)     !
 ------------------------------------------------------------------------
 !       R2          0.9664   calculate D2E/DX2 analytically            !
 !       OHH       103.6544   frozen, calculate D2E/DX2 analytically    !
 ------------------------------------------------------------------------
 Number of steps in this run=      2 maximum allowed number of steps=      2.
 GradGradGradGradGradGradGradGradGradGradGradGradGradGradGradGradGradGrad

                    Distance matrix (angstroms):
                    1          2          3
     1  O    0.000000
     2  H    0.966391   0.000000
     3  H    0.966391   1.519457   0.000000
 Framework group  C2V[C2(O),SGV(H2)]
 Deg. of freedom     2
                         Standard orientation:                         
 ---------------------------------------------------------------------
 Center     Atomic      Atomic             Coordinates (Angstroms)
 Number     Number       Type             X           Y           Z
 ---------------------------------------------------------------------
      1          8           0       -0.000000   -0.000000    0.119453
      2          1           0        0.000000    0.759728   -0.477811
      3          1           0       -0.000000   -0.759728   -0.477811
 ---------------------------------------------------------------------
 Rotational constants (GHZ):         791.4352965         434.3954359         280.4595052
    24 basis functions,    39 primitive gaussians,    25 cartesian basis functions
     5 alpha electrons        5 beta electrons
       nuclear repulsion energy         9.1095630903 Hartrees.
 NAtoms=    3 NActive=    3 NUniq=    2 SFac= 2.25D+00 NAtFMM=   60 NAOKFM=F Big=F
 Initial guess from the checkpoint file:  "h2o_b3lyp_gen_def2.chk"
 B after Tr=    -0.000000    0.000000   -0.000000
         Rot=    1.000000    0.000000    0.000000    0.000000 Ang=   0.00 deg.
 Initial guess orbital symmetries:
       Occupied  (A1) (A1) (B2) (A1) (B1)
       Virtual   (A1) (B2) (B2) (A1) (A1) (B1) (B2) (A1) (A2) (A1)
                 (B1) (B2) (B2) (A1) (B1) (A2) (A1) (A1) (B2)
 SCF Done:  E(RB3LYP) =  -76.3583080942     A.U. after    1 cycles
            NFock=  1  Conv=0.40D-09     -V/T= 2.0069
 DoSCS=F DFT=T ScalE2(SS,OS)=  1.000000  1.000000
 NROrb=     24 NOA=     5 NOB=     5 NVA=    19 NVB=    19
 Symmetrizing basis deriv contribution to polar:
 IMax=3 JMax=2 DiffMx= 0.00D+00
 Calling FoFCou, ICntrl=  3107 FMM=F I1Cent=   0 AccDes= 0.00D+00.
 End of G2Drv F.D. properties file   721 does not exist.
 End of G2Drv F.D. properties file   722 does not exist.
 End of G2Drv F.D. properties file   788 does not exist.
          IDoAtm=111
 End of Minotr F.D. properties file   721 does not exist.
 End of Minotr F.D. properties file   722 does not exist.
 End of Minotr F.D. properties file   788 does not exist.

 **********************************************************************

            Population analysis using the SCF Density.

 **********************************************************************

 Orbital symmetries:
       Occupied  (A1) (A1) (B2) (A1) (B1)
       Virtual   (A1) (B2) (B2) (A1) (A1) (B1) (B2) (A1) (A2) (A1)
                 (B1) (B2) (B2) (A1) (B1) (A2) (A1) (A1) (B2)
 The electronic state is 1-A1.
 Alpha  occ. eigenvalues --  -19.11932  -0.97944  -0.51269  -0.36681  -0.29151
 Alpha virt. eigenvalues --    0.04498   0.12400   0.55691   0.61887   0.91704
 Alpha virt. eigenvalues --    0.92049   1.00658   1.09401   1.34599   1.40250
 Alpha virt. eigenvalues --    1.54523   1.78343   2.20050   2.24616   2.95793
 Alpha virt. eigenvalues --    2.99915   3.18344   3.48757   3.81759
          Condensed to atoms (all electrons):
 Mulliken charges:
               1
     1  O   -0.295753
     2  H    0.147877
     3  H    0.147877
 Sum of Mulliken charges =  -0.00000
 Mulliken charges with hydrogens summed into heavy atoms:
               1
     1  O   -0.000000
 APT charges:
               1
     1  O   -0.481037
     2  H    0.240519
     3  H    0.240519
 Sum of APT charges =   0.00000
 APT charges with hydrogens summed into heavy atoms:
               1
     1  O    0.000000
 Electronic spatial extent (au):  <R**2>=             19.0098
 Charge=              0.0000 electrons
 Dipole moment (field-independent basis, Debye):
    X=             -0.0000    Y=              0.0000    Z=             -1.9971  Tot=              1.9971
  Exact polarizability:       3.112      -0.000       7.324      -0.000      -0.000       5.447
 Approx polarizability:       3.313       0.000       8.901       0.000       0.000       6.761
 Calling FoFJK, ICntrl=    100127 FMM=F ISym2X=1 I1Cent= 0 IOpClX= 0 NMat=1 NMatS=1 NMatT=0.
 Full mass-weighted force constant matrix:
 Low frequencies --- -130.7263   -0.0023   -0.0022   -0.0020   16.1438   99.7420
 Low frequencies --- 1631.0329 3793.2610 3893.1975
 Diagonal vibrational polarizability:
        0.0000000       0.0505426       0.5807915
 Harmonic frequencies (cm**-1), IR intensities (KM/Mole), Raman scattering
 activities (A**4/AMU), depolarization ratios for plane and unpolarized
 incident light, reduced masses (AMU), force constants (mDyne/A),
 and normal coordinates:
                      1                      2                      3
                     A1                     A1                     B2
 Frequencies --   1631.0329              3793.2610              3893.1961
 Red. masses --      1.0821                 1.0457                 1.0810
 Frc consts  --      1.6960                 8.8652                 9.6537
 IR Inten    --     56.4993                 4.9435                28.4667
  Atom  AN      X      Y      Z        X      Y      Z        X      Y      Z
     1   8    -0.00  -0.00  -0.07     0.00   0.00   0.05    -0.00  -0.07   0.00
     2   1     0.00   0.43   0.56     0.00   0.58  -0.40     0.00   0.55  -0.44
     3   1     0.00  -0.43   0.56    -0.00  -0.58  -0.40     0.00   0.55   0.44
 
 Temperature   298.150 Kelvin.  Pressure   1.00000 Atm.
 Zero-point correction=                           0.021227 (Hartree/Particle)
 Thermal correction to Energy=                    0.024062
 Thermal correction to Enthalpy=                  0.025006
 Thermal correction to Gibbs Free Energy=         0.003566
 Sum of electronic and zero-point Energies=            -76.337081
 Sum of electronic and thermal Energies=               -76.334246
 Sum of electronic and thermal Enthalpies=             -76.333302
 Sum of electronic and thermal Free Energies=          -76.354742

 GradGradGradGradGradGradGradGradGradGradGradGradGradGradGradGradGradGrad
 Step number   1 out of a maximum of    2
 All quantities printed in internal units (Hartrees-Bohrs-Radians)
 Second derivative matrix not updated -- analytic derivatives used.
 ITU=  0
     Eigenvalues ---    1.050581000.00000
 Angle between quadratic step and forces=  90.00 degrees.
 Linear search not attempted -- first point.
 Variable       Old X    -DE/DX   Delta X   Delta X   Delta X     New X
                                 (Linear)    (Quad)   (Total)
    R2        1.82621   0.00000   0.00000   0.00000   0.00000   1.82621
   OHH        1.80911  -0.00155   0.00000   0.00000   0.00000   1.80911
         Item               Value     Threshold  Converged?
 Maximum Force            0.000000     0.000015     YES
 RMS     Force            0.000000     0.000010     YES
 Maximum Displacement     0.000000     0.000060     YES
 RMS     Displacement     0.000000     0.000040     YES
 Optimization completed.
    -- Stationary point found.
                       ----------------------------
                       !   Optimized Parameters   !
                       ! (Angstroms and Degrees)  !
 ----------------------                            ----------------------
 !      Name          Value   Derivative information (Atomic Units)     !
 ------------------------------------------------------------------------
 !       R2          0.9664   -DE/DX =    0.0                           !
 !       OHH       103.6544   -DE/DX =   -0.0016                        !
 ------------------------------------------------------------------------
 GradGradGradGradGradGradGradGradGradGradGradGradGradGradGradGradGradGrad


 ----------------------------------------------------------------------

 Electric dipole moment (input orientation):
 (Debye = 10**-18 statcoulomb cm , SI units = C m)
                  (au)            (Debye)         (10**-30 SI)
   Tot        0.785718D+00      0.199710D+01      0.666160D+01
   x          0.617693D+00      0.157002D+01      0.523702D+01
   y          0.000000D+00      0.000000D+00      0.000000D+00
   z          0.485602D+00      0.123428D+01      0.411710D+01

 Dipole polarizability, Alpha (input orientation).
 (esu units = cm**3 , SI units = C**2 m**2 J**-1)
 Alpha(0;0):
               (au)            (10**-24 esu)      (10**-40 SI)
   iso        0.529447D+01      0.784560D+00      0.872941D+00
   aniso      0.365462D+01      0.541558D+00      0.602565D+00
   xx         0.616386D+01      0.913391D+00      0.101628D+01
   yx         0.000000D+00      0.000000D+00      0.000000D+00
   yy         0.311248D+01      0.461221D+00      0.513178D+00
   zx        -0.912216D+00     -0.135176D+00     -0.150404D+00
   zy         0.000000D+00      0.000000D+00      0.000000D+00
   zz         0.660708D+01      0.979068D+00      0.108936D+01

 ----------------------------------------------------------------------

 Dipole orientation:
     8          0.00000000          0.00000000          0.00000000
     1         -1.43567874         -0.00000000          1.12866457
     1          1.43567874          0.00000000          1.12866457

 Electric dipole moment (dipole orientation):
 (Debye = 10**-18 statcoulomb cm , SI units = C m)
                  (au)            (Debye)         (10**-30 SI)
   Tot        0.785718D+00      0.199710D+01      0.666160D+01
   x          0.000000D+00      0.000000D+00      0.000000D+00
   y          0.000000D+00      0.000000D+00      0.000000D+00
   z          0.785718D+00      0.199710D+01      0.666160D+01

 Dipole polarizability, Alpha (dipole orientation).
 (esu units = cm**3 , SI units = C**2 m**2 J**-1)
 Alpha(0;0):
               (au)            (10**-24 esu)      (10**-40 SI)
   iso        0.529447D+01      0.784560D+00      0.872941D+00
   aniso      0.365462D+01      0.541558D+00      0.602565D+00
   xx         0.732422D+01      0.108534D+01      0.120760D+01
   yx         0.000000D+00      0.000000D+00      0.000000D+00
   yy         0.311248D+01      0.461221D+00      0.513178D+00
   zx         0.000000D+00      0.000000D+00      0.000000D+00
   zy         0.000000D+00      0.000000D+00      0.000000D+00
   zz         0.544672D+01      0.807121D+00      0.898043D+00

 ----------------------------------------------------------------------
 Unable to Open any file for archive entry.
 1\1\GINC-CCC171\Freq\RB3LYP\Gen\H2O1\ROOT\27-Jan-2026\1\\#T Geom=AllCh
 eck Guess=TCheck SCRF=Check GenChk RB3LYP/ChkBas Freq\\Gaussian Test J
 ob of H2O\\0,1\O\H,1,R2\H,1,R2,2,OHH\\R2=0.96639077\OHH=103.6544\\Vers
 ion=ES64L-G16RevC.02\State=1-A1\HF=-76.3583081\RMSD=3.994e-10\RMSF=5.9
 88e-04\ZeroPoint=0.0212268\Thermal=0.0240622\ETot=-76.3342459\HTot=-76
 .3333017\GTot=-76.3547418\Dipole=0.6176928,0.,0.4856017\DipoleDeriv=-0
 .3600485,0.,0.0553044,0.,-0.6961445,0.,0.0553044,0.,-0.3869188,0.25971
 91,0.,-0.0694596,0.,0.3480722,0.,-0.0245656,0.,0.1137645,0.1003293,0.,
 0.0141551,0.,0.3480722,0.,-0.0307389,0.,0.2731543\Polar=6.1638647,0.,3
 .1124765,-0.9122155,0.,6.6070751\Quadrupole=0.3194697,-0.923364,0.6038
 943,0.,-0.5854029,0.\PG=C02V [C2(O1),SGV(H2)]\NImag=0\\0.53396284,0.,-
 0.00115768,-0.10072933,0.,0.58290334,-0.04291059,0.,-0.03418779,0.0481
 5625,0.,0.00057884,0.,0.,-0.00009970,0.02604974,0.,-0.51552250,-0.0166
 3320,0.,0.53082658,-0.49105225,0.,0.13491712,-0.00524566,0.,-0.0094165
 4,0.49629792,0.,0.00057884,0.,0.,-0.00047913,0.,0.,-0.00009970,0.07467
 959,0.,-0.06738084,0.05082099,0.,-0.01530408,-0.12550058,0.,0.08268491
 \\0.00105007,0.,0.00082552,-0.00084953,0.,0.,-0.00020054,0.,-0.0008255
 2\\\@
 The archive entry for this job was punched.


 THE 2ND LAW OF THERMODYNAMICS HAS THE SAME
 DEGREE OF TRUTH AS THE STATEMENT THAT IF YOU THROW
 A TUMBLERFULL OF WATER INTO THE SEA, YOU CANNOT GET
 THE SAME TUMBLERFULL OF WATER OUT AGAIN.
          - J.C. MAXWELL, LETTER TO LORD RAYLEIGH, DECEMBER 6,1870
 Job cpu time:       0 days  0 hours  0 minutes  5.9 seconds.
 Elapsed time:       0 days  0 hours  0 minutes  1.9 seconds.
 File lengths (MBytes):  RWF=      6 Int=      0 D2E=      0 Chk=      1 Scr=      1
 Normal termination of Gaussian 16 at Tue Jan 27 17:27:24 2026.
