Gaussian Test Job of H2O                                                
Freq      RB3LYP                                                      Gen                 
Number of atoms                            I                3
Info1-9                                    I   N=           9
          45          45        1002           0           0         100
           6          18        -502
Full Title                                 C   N=           2
Gaussian Test Job of H2O
Route                                      C   N=           5
#T B3LYP/GEN SCF=Tight Opt=(z-matrix,Tight) Freq Symm=Loose 
Charge                                     I                0
Multiplicity                               I                1
Number of electrons                        I               10
Number of alpha electrons                  I                5
Number of beta electrons                   I                5
Number of basis functions                  I               24
Number of independent functions            I               24
Number of point charges in /Mol/           I                0
Number of translation vectors              I                0
Atomic numbers                             I   N=           3
           8           1           1
Nuclear charges                            R   N=           3
  8.00000000E+00  1.00000000E+00  1.00000000E+00
Current cartesian coordinates              R   N=           9
 -5.48786071E-33  3.35761261E-18  2.25732914E-01  3.49525930E-31  1.43567874E+00
 -9.02931655E-01 -1.75819938E-16 -1.43567874E+00 -9.02931655E-01
Number of symbols in /Mol/                 I                0
Int Atom Types                             I   N=           3
           0           0           0
Force Field                                I                0
Atom Types                                 C   N=           3
                                    
MM charges                                 R   N=           3
  0.00000000E+00  0.00000000E+00  0.00000000E+00
Integer atomic weights                     I   N=           3
          16           1           1
Real atomic weights                        R   N=           3
  1.59949146E+01  1.00782504E+00  1.00782504E+00
Atom fragment info                         I   N=           3
           0           0           0
Atom residue num                           I   N=           3
           0           0           0
Nuclear spins                              I   N=           3
           0           1           1
Nuclear ZEff                               R   N=           3
 -5.60000000E+00 -1.00000000E+00 -1.00000000E+00
Nuclear ZNuc                               R   N=           3
  8.00000000E+00  1.00000000E+00  1.00000000E+00
Nuclear QMom                               R   N=           3
  0.00000000E+00  0.00000000E+00  0.00000000E+00
Nuclear GFac                               R   N=           3
  0.00000000E+00  2.79284600E+00  2.79284600E+00
MicOpt                                     I   N=           3
          -1          -1          -1
Number of residues                         I                0
Number of secondary structures             I                0
SymInf integers                            I   N=          26
           2           4           1           1           1          -1
          -1           1          -1           1           1           1
          -1           1           0           0           0           0
           0           0           0           0           0           0
           0           0
RotTr to input orientation                 R   N=          12
 -7.94811091E-18 -1.00000000E+00 -5.81708960E-16 -6.18035256E-01 -4.52398508E-16
  7.86150381E-01 -7.86150381E-01  3.65765057E-16 -6.18035256E-01  1.77460016E-01
  1.75819938E-17  1.39510899E-01
Number of contracted shells                I               12
Number of primitive shells                 I               22
Pure/Cartesian d shells                    I                0
Pure/Cartesian f shells                    I                0
Highest angular momentum                   I                2
Largest degree of contraction              I                5
Shell types                                I   N=          12
           0           0           0           1           1          -2
           0           0           1           0           0           1
Number of primitives per shell             I   N=          12
           5           1           1           3           1           1
           3           1           1           3           1           1
Shell to atom map                          I   N=          12
           1           1           1           1           1           1
           2           2           2           3           3           3
Primitive exponents                        R   N=          22
  2.26617678E+03  3.40870102E+02  7.73631352E+01  2.14796449E+01  6.65894331E+00
  8.09759757E-01  2.55307722E-01  1.77215043E+01  3.86355054E+00  1.04809209E+00
  2.76415444E-01  1.20000000E+00  1.30107010E+01  1.96225720E+00  4.44537960E-01
  1.21949620E-01  8.00000000E-01  1.30107010E+01  1.96225720E+00  4.44537960E-01
  1.21949620E-01  8.00000000E-01
Contraction coefficients                   R   N=          22
 -5.38935039E-03 -4.02347214E-02 -1.80081842E-01 -4.68288577E-01 -4.46926172E-01
  1.00000000E+00  1.00000000E+00  6.26302488E-02  3.33311385E-01  7.41486383E-01
  1.00000000E+00  1.00000000E+00  3.34854848E-02  2.34721871E-01  8.13770285E-01
  1.00000000E+00  1.00000000E+00  3.34854848E-02  2.34721871E-01  8.13770285E-01
  1.00000000E+00  1.00000000E+00
Coordinates of each shell                  R   N=          36
 -3.35652844E-33 -7.74441062E-18  2.25732914E-01 -3.35652844E-33 -7.74441062E-18
  2.25732914E-01 -3.35652844E-33 -7.74441062E-18  2.25732914E-01 -3.35652844E-33
 -7.74441062E-18  2.25732914E-01 -3.35652844E-33 -7.74441062E-18  2.25732914E-01
 -3.35652844E-33 -7.74441062E-18  2.25732914E-01  1.92588215E-31  1.43567874E+00
 -9.02931655E-01  1.92588215E-31  1.43567874E+00 -9.02931655E-01  1.92588215E-31
  1.43567874E+00 -9.02931655E-01 -1.75819938E-16 -1.43567874E+00 -9.02931655E-01
 -1.75819938E-16 -1.43567874E+00 -9.02931655E-01 -1.75819938E-16 -1.43567874E+00
 -9.02931655E-01
Num ILSW                                   I              100
ILSW                                       I   N=         100
           0           0           0           0           2           0
           0           0           0           0         402          -1
           5           0           0           0           2           0
           0           0           2           0           1           0
           1           0           0           0           0           0
           0           0      100000           0          -1           0
           0           0           0           0           0           0
           0           0           0           1           0           0
           0 -2000000000           1           0           0           0
           0           0           4          52           0           0
           0           0           5           0           0           0
           0           0           0           0           0           1
           0           0           0           0           0           0
           0           0           0           0           0           0
           0           0           0           0           0           0
           0           0           0           0           0           0
           0           0           0           0
Num RLSW                                   I               52
RLSW                                       R   N=          52
  8.00000000E-01  7.20000000E-01  1.00000000E+00  8.10000000E-01  2.00000000E-01
  0.00000000E+00  0.00000000E+00  1.00000000E+00  0.00000000E+00  0.00000000E+00
  0.00000000E+00  0.00000000E+00  1.00000000E+00  0.00000000E+00  0.00000000E+00
  0.00000000E+00  0.00000000E+00  1.00000000E+00  0.00000000E+00  0.00000000E+00
  0.00000000E+00  0.00000000E+00  1.00000000E+00  0.00000000E+00  0.00000000E+00
  0.00000000E+00  0.00000000E+00  1.00000000E+00  0.00000000E+00  0.00000000E+00
  0.00000000E+00  0.00000000E+00  1.00000000E+00  0.00000000E+00  0.00000000E+00
  0.00000000E+00  0.00000000E+00  0.00000000E+00  1.00000000E+00  1.00000000E+00
  0.00000000E+00  1.00000000E+00  0.00000000E+00  0.00000000E+00  0.00000000E+00
  0.00000000E+00  0.00000000E+00  0.00000000E+00  0.00000000E+00  0.00000000E+00
  0.00000000E+00  0.00000000E+00
MxBond                                     I                2
NBond                                      I   N=           3
           2           1           1
IBond                                      I   N=           6
           2           3           1           0           1           0
RBond                                      R   N=           6
  1.00000000E+00  1.00000000E+00  1.00000000E+00  0.00000000E+00  1.00000000E+00
  0.00000000E+00
Virial Ratio                               R      2.006892271381418E+00
SCF Energy                                 R     -7.635830809420061E+01
Total Energy                               R     -7.635830809420061E+01
RMS Force                                  R      5.988422055886710E-04
RMS Density                                R      3.993997329041132E-10
NImag                                      I                0
Job Status                                 I                1
Nuclear derivative order                   I                2
Thermal Energy                             R     -7.633424589763000E+01
Thermal Enthalpy                           R     -7.633330171281636E+01
Thermal Free Energy                        R     -7.635474179967727E+01
External E-field                           R   N=          35
  0.00000000E+00  0.00000000E+00  0.00000000E+00  0.00000000E+00  0.00000000E+00
  0.00000000E+00  0.00000000E+00  0.00000000E+00  0.00000000E+00  0.00000000E+00
  0.00000000E+00  0.00000000E+00  0.00000000E+00  0.00000000E+00  0.00000000E+00
  0.00000000E+00  0.00000000E+00  0.00000000E+00  0.00000000E+00  0.00000000E+00
  0.00000000E+00  0.00000000E+00  0.00000000E+00  0.00000000E+00  0.00000000E+00
  0.00000000E+00  0.00000000E+00  0.00000000E+00  0.00000000E+00  0.00000000E+00
  0.00000000E+00  0.00000000E+00  0.00000000E+00  0.00000000E+00  0.00000000E+00
IOpCl                                      I                0
IROHF                                      I                0
Alpha Orbital Energies                     R   N=          24
 -1.91193239E+01 -9.79441977E-01 -5.12689117E-01 -3.66809850E-01 -2.91507108E-01
  4.49845679E-02  1.23999581E-01  5.56911830E-01  6.18871642E-01  9.17036408E-01
  9.20492116E-01  1.00657876E+00  1.09400827E+00  1.34598606E+00  1.40250334E+00
  1.54522646E+00  1.78343205E+00  2.20049626E+00  2.24616059E+00  2.95793144E+00
  2.99915173E+00  3.18343541E+00  3.48756779E+00  3.81758518E+00
Alpha MO coefficients                      R   N=         576
  9.88805943E-01 -3.95211708E-02  1.39938678E-02  0.00000000E+00  0.00000000E+00
  3.07939552E-03  0.00000000E+00  0.00000000E+00 -7.53658442E-05 -1.62167751E-04
  0.00000000E+00  0.00000000E+00  1.30472019E-03  0.00000000E+00  2.39675791E-03
 -2.33387195E-03  0.00000000E+00 -2.54061414E-03  2.03965574E-03  2.39675791E-03
 -2.33387195E-03  0.00000000E+00  2.54061414E-03  2.03965574E-03  2.76488079E-01
  5.51945645E-01  2.59024345E-01  0.00000000E+00  0.00000000E+00 -1.21316313E-01
  0.00000000E+00  0.00000000E+00 -1.41620535E-04  2.82174758E-03  0.00000000E+00
  0.00000000E+00 -5.42994295E-03  0.00000000E+00  2.04263241E-01  1.41381654E-02
  0.00000000E+00 -3.14629270E-02  1.51165111E-02  2.04263241E-01  1.41381654E-02
  0.00000000E+00  3.14629270E-02  1.51165111E-02  0.00000000E+00  0.00000000E+00
  0.00000000E+00  0.00000000E+00  5.04792424E-01  0.00000000E+00  0.00000000E+00
  2.03614952E-01  0.00000000E+00  0.00000000E+00  0.00000000E+00 -2.30378695E-02
  0.00000000E+00  0.00000000E+00  3.27893628E-01  1.07389766E-01  0.00000000E+00
 -1.42044830E-02  2.60820546E-02 -3.27893628E-01 -1.07389766E-01  0.00000000E+00
 -1.42044830E-02 -2.60820546E-02  1.10949331E-01  2.18992559E-01  3.68800275E-01
  0.00000000E+00  0.00000000E+00  5.46432428E-01  0.00000000E+00  0.00000000E+00
  3.42634369E-01 -1.85008184E-02  0.00000000E+00  0.00000000E+00  9.23948321E-04
  0.00000000E+00 -2.00801252E-01 -6.65281563E-02  0.00000000E+00  2.48469707E-02
  1.34277794E-02 -2.00801252E-01 -6.65281563E-02  0.00000000E+00 -2.48469707E-02
  1.34277794E-02  0.00000000E+00  0.00000000E+00  0.00000000E+00  6.38135707E-01
  0.00000000E+00  0.00000000E+00  4.90411377E-01  0.00000000E+00  0.00000000E+00
  0.00000000E+00 -1.95740894E-02  0.00000000E+00  0.00000000E+00  0.00000000E+00
  0.00000000E+00  0.00000000E+00  3.03733051E-02  0.00000000E+00  0.00000000E+00
  0.00000000E+00  0.00000000E+00  3.03733051E-02  0.00000000E+00  0.00000000E+00
  1.02513438E-01  1.65811584E-01  9.64375121E-01  0.00000000E+00  0.00000000E+00
 -2.46235260E-01  0.00000000E+00  0.00000000E+00 -3.42574721E-01  8.93582863E-03
  0.00000000E+00  0.00000000E+00 -4.03678491E-03  0.00000000E+00 -1.12982836E-01
 -8.26046415E-01  0.00000000E+00 -2.59184518E-03 -1.50360671E-03 -1.12982836E-01
 -8.26046415E-01  0.00000000E+00  2.59184518E-03 -1.50360671E-03  0.00000000E+00
  0.00000000E+00  0.00000000E+00  0.00000000E+00 -3.69472058E-01  0.00000000E+00
  0.00000000E+00 -6.06864994E-01  0.00000000E+00  0.00000000E+00  0.00000000E+00
  8.73921540E-03  0.00000000E+00  0.00000000E+00  1.03869215E-01  1.29796646E+00
  0.00000000E+00  6.08884997E-04 -4.77183222E-03 -1.03869215E-01 -1.29796646E+00
  0.00000000E+00  6.08884997E-04  4.77183222E-03  0.00000000E+00  0.00000000E+00
  0.00000000E+00  0.00000000E+00 -2.96410073E-01  0.00000000E+00  0.00000000E+00
 -3.75164000E-01  0.00000000E+00  0.00000000E+00  0.00000000E+00 -1.01778405E-01
  0.00000000E+00  0.00000000E+00  9.61637481E-01 -8.41570587E-01  0.00000000E+00
  4.41684477E-02 -1.09722686E-01 -9.61637481E-01  8.41570587E-01  0.00000000E+00
  4.41684477E-02  1.09722686E-01 -1.05464435E-01 -3.89219643E-01  4.34404191E-01
  0.00000000E+00  0.00000000E+00  3.82170800E-01  0.00000000E+00  0.00000000E+00
 -8.32023984E-03 -1.53342534E-04  0.00000000E+00  0.00000000E+00 -9.37111432E-02
  0.00000000E+00  8.39991503E-01 -6.37380766E-01  0.00000000E+00  2.06393946E-01
 -4.75009574E-02  8.39991503E-01 -6.37380766E-01  0.00000000E+00 -2.06393946E-01
 -4.75009574E-02 -1.40563490E-01 -5.99248367E-01  1.03801895E-01  0.00000000E+00
  0.00000000E+00 -7.79286301E-01  0.00000000E+00  0.00000000E+00  1.15205681E+00
 -7.20704379E-03  0.00000000E+00  0.00000000E+00 -1.52151077E-02  0.00000000E+00
  3.95486627E-01 -6.70294514E-03  0.00000000E+00 -2.70991611E-02  1.37178973E-01
  3.95486627E-01 -6.70294514E-03  0.00000000E+00  2.70991611E-02  1.37178973E-01
  0.00000000E+00  0.00000000E+00  0.00000000E+00 -9.64212636E-01  0.00000000E+00
  0.00000000E+00  1.01956721E+00  0.00000000E+00  0.00000000E+00  0.00000000E+00
  2.69420439E-03  0.00000000E+00  0.00000000E+00  0.00000000E+00  0.00000000E+00
  0.00000000E+00  2.19412347E-02  0.00000000E+00  0.00000000E+00  0.00000000E+00
  0.00000000E+00  2.19412347E-02  0.00000000E+00  0.00000000E+00  0.00000000E+00
  0.00000000E+00  0.00000000E+00  0.00000000E+00 -7.75202319E-01  0.00000000E+00
  0.00000000E+00  1.73914509E+00  0.00000000E+00  0.00000000E+00  0.00000000E+00
 -2.14820815E-02  0.00000000E+00  0.00000000E+00 -3.47511107E-01 -8.12159305E-01
  0.00000000E+00  2.24350393E-01 -1.22109208E-01  3.47511107E-01  8.12159305E-01
  0.00000000E+00  2.24350393E-01  1.22109208E-01 -2.47011048E-01 -1.55212177E+00
  2.77301229E+00  0.00000000E+00  0.00000000E+00  9.59950728E-02  0.00000000E+00
  0.00000000E+00 -6.26428925E-01  4.31832993E-02  0.00000000E+00  0.00000000E+00
  5.18862130E-02  0.00000000E+00 -5.20388730E-01 -5.11304736E-01  0.00000000E+00
 -3.21951212E-02 -3.06665595E-01 -5.20388730E-01 -5.11304736E-01  0.00000000E+00
  3.21951212E-02 -3.06665595E-01  0.00000000E+00  0.00000000E+00  0.00000000E+00
  0.00000000E+00  0.00000000E+00  0.00000000E+00  0.00000000E+00  0.00000000E+00
  0.00000000E+00  0.00000000E+00  0.00000000E+00  0.00000000E+00  0.00000000E+00
  1.73303073E-01  0.00000000E+00  0.00000000E+00  6.67569560E-01  0.00000000E+00
  0.00000000E+00  0.00000000E+00  0.00000000E+00 -6.67569560E-01  0.00000000E+00
  0.00000000E+00 -8.33819542E-02 -6.90942529E-01  1.65431189E+00  0.00000000E+00
  0.00000000E+00  9.73639698E-02  0.00000000E+00  0.00000000E+00 -1.18309053E+00
 -1.95563667E-01  0.00000000E+00  0.00000000E+00  2.00513597E-02  0.00000000E+00
 -7.27976103E-01 -1.80940284E-01  0.00000000E+00  4.41380919E-01  4.37120615E-01
 -7.27976103E-01 -1.80940284E-01  0.00000000E+00 -4.41380919E-01  4.37120615E-01
  0.00000000E+00  0.00000000E+00  0.00000000E+00 -4.41935130E-04  0.00000000E+00
  0.00000000E+00 -5.80386216E-01  0.00000000E+00  0.00000000E+00  0.00000000E+00
 -2.08860517E-01  0.00000000E+00  0.00000000E+00  0.00000000E+00  0.00000000E+00
  0.00000000E+00  7.33475090E-01  0.00000000E+00  0.00000000E+00  0.00000000E+00
  0.00000000E+00  7.33475090E-01  0.00000000E+00  0.00000000E+00  0.00000000E+00
  0.00000000E+00  0.00000000E+00  0.00000000E+00 -1.72369376E-02  0.00000000E+00
  0.00000000E+00  8.20658982E-01  0.00000000E+00  0.00000000E+00  0.00000000E+00
  2.84668830E-02  0.00000000E+00  0.00000000E+00 -3.42913418E-01 -9.19758589E-02
  0.00000000E+00 -4.56644628E-01 -6.73023433E-01  3.42913418E-01  9.19758589E-02
  0.00000000E+00 -4.56644628E-01  6.73023433E-01  0.00000000E+00  0.00000000E+00
  0.00000000E+00  0.00000000E+00  7.30321168E-01  0.00000000E+00  0.00000000E+00
  1.35480666E-01  0.00000000E+00  0.00000000E+00  0.00000000E+00  1.69960523E-01
  0.00000000E+00  0.00000000E+00 -2.01742215E-01 -3.36439012E-01  0.00000000E+00
  6.83381498E-01 -5.26978435E-01  2.01742215E-01  3.36439012E-01  0.00000000E+00
  6.83381498E-01  5.26978435E-01  1.49271839E-01  7.30198029E-01  7.05354719E-01
  0.00000000E+00  0.00000000E+00 -5.84022250E-01  0.00000000E+00  0.00000000E+00
 -2.21961766E-01 -8.70725578E-02  0.00000000E+00  0.00000000E+00  2.78981096E-01
  0.00000000E+00 -4.08022887E-01 -2.06224948E-01  0.00000000E+00  7.13523402E-01
 -5.09708060E-01 -4.08022887E-01 -2.06224948E-01  0.00000000E+00 -7.13523402E-01
 -5.09708060E-01  0.00000000E+00  0.00000000E+00  0.00000000E+00  1.62699510E-02
  0.00000000E+00  0.00000000E+00 -2.99791529E-01  0.00000000E+00  0.00000000E+00
  0.00000000E+00  1.02848529E+00  0.00000000E+00  0.00000000E+00  0.00000000E+00
  0.00000000E+00  0.00000000E+00  4.10474250E-01  0.00000000E+00  0.00000000E+00
  0.00000000E+00  0.00000000E+00  4.10474250E-01  0.00000000E+00  0.00000000E+00
  0.00000000E+00  0.00000000E+00  0.00000000E+00  0.00000000E+00  0.00000000E+00
  0.00000000E+00  0.00000000E+00  0.00000000E+00  0.00000000E+00  0.00000000E+00
  0.00000000E+00  0.00000000E+00  0.00000000E+00  1.05231558E+00  0.00000000E+00
  0.00000000E+00 -3.80629365E-01  0.00000000E+00  0.00000000E+00  0.00000000E+00
  0.00000000E+00  3.80629365E-01  0.00000000E+00  0.00000000E+00 -1.67785339E-03
 -9.18874411E-02  4.75983775E-01  0.00000000E+00  0.00000000E+00 -2.97012726E-03
  0.00000000E+00  0.00000000E+00 -5.17676933E-01  1.06335804E+00  0.00000000E+00
  0.00000000E+00  2.09187559E-01  0.00000000E+00 -2.73544346E-01 -5.07836198E-02
  0.00000000E+00  3.57240907E-01  3.31525067E-01 -2.73544346E-01 -5.07836198E-02
  0.00000000E+00 -3.57240907E-01  3.31525067E-01  7.41864183E-02  1.30562673E-01
  1.91596861E+00  0.00000000E+00  0.00000000E+00 -3.76857675E-01  0.00000000E+00
  0.00000000E+00 -9.19912591E-01  1.73979537E-01  0.00000000E+00  0.00000000E+00
 -1.13588883E+00  0.00000000E+00 -1.14162496E+00 -2.37237901E-01  0.00000000E+00
  6.21271617E-01 -4.89294857E-01 -1.14162496E+00 -2.37237901E-01  0.00000000E+00
 -6.21271617E-01 -4.89294857E-01  0.00000000E+00  0.00000000E+00  0.00000000E+00
  0.00000000E+00 -4.63448797E-01  0.00000000E+00  0.00000000E+00 -1.10882852E+00
  0.00000000E+00  0.00000000E+00  0.00000000E+00  1.33480882E+00  0.00000000E+00
  0.00000000E+00  1.03795592E+00  2.72263356E-01  0.00000000E+00 -6.16290320E-01
  5.15567685E-01 -1.03795592E+00 -2.72263356E-01  0.00000000E+00 -6.16290320E-01
 -5.15567685E-01
Orthonormal basis                          R   N=         576
 -5.61496813E-02  1.91754873E-01  2.33680788E-01  0.00000000E+00  0.00000000E+00
 -6.51451632E-02  0.00000000E+00  0.00000000E+00 -1.01671142E-01  8.37951297E-03
  0.00000000E+00  0.00000000E+00 -1.99612682E-02  0.00000000E+00  1.64940880E-01
  2.00408818E-01  0.00000000E+00 -8.68414376E-02  3.17586408E-02  1.64940880E-01
  2.00408818E-01  0.00000000E+00  8.68414376E-02  3.17586408E-02 -1.10991272E-01
  1.98743012E-01  1.74352984E-01  0.00000000E+00  0.00000000E+00  3.17724617E-01
  0.00000000E+00  0.00000000E+00  3.96382495E-01 -1.61220359E-01  0.00000000E+00
  0.00000000E+00 -8.41963650E-02  0.00000000E+00 -6.15937510E-02  1.49024180E-02
  0.00000000E+00  1.43545905E-01  2.33969789E-01 -6.15937510E-02  1.49024180E-02
  0.00000000E+00 -1.43545905E-01  2.33969789E-01  2.22180899E-01 -2.54220593E-01
 -6.29885826E-03  0.00000000E+00  0.00000000E+00  2.13327511E-01  0.00000000E+00
  0.00000000E+00 -3.52208960E-02 -9.95104385E-02  0.00000000E+00  0.00000000E+00
  3.79881500E-02  0.00000000E+00  1.59173078E-01  2.40031050E-01  0.00000000E+00
  3.62608271E-01 -1.75296103E-01  1.59173078E-01  2.40031050E-01  0.00000000E+00
 -3.62608271E-01 -1.75296103E-01 -1.32668536E-01  1.20378938E-01  1.15250006E-01
  0.00000000E+00  0.00000000E+00  3.33928789E-01  0.00000000E+00  0.00000000E+00
  2.20378887E-01  4.49108721E-01  0.00000000E+00  0.00000000E+00  4.05854241E-01
  0.00000000E+00 -8.55563105E-02  5.12765720E-02  0.00000000E+00 -9.45618211E-02
 -2.78964108E-01 -8.55563105E-02  5.12765720E-02  0.00000000E+00  9.45618211E-02
 -2.78964108E-01 -2.92255355E-01  7.67100029E-02 -5.42511317E-03  0.00000000E+00
  0.00000000E+00 -1.56789301E-01  0.00000000E+00  0.00000000E+00 -1.24815737E-01
 -5.77185245E-01  0.00000000E+00  0.00000000E+00  6.99537278E-01  0.00000000E+00
 -6.42774605E-02 -2.18038809E-03  0.00000000E+00  6.25868697E-02 -1.58648255E-02
 -6.42774605E-02 -2.18038809E-03  0.00000000E+00 -6.25868697E-02 -1.58648255E-02
  8.86438249E-01  3.17637876E-02  1.81522293E-01  0.00000000E+00  0.00000000E+00
 -5.54561476E-02  0.00000000E+00  0.00000000E+00  1.73795814E-01 -9.09867456E-02
  0.00000000E+00  0.00000000E+00  3.33769358E-01  0.00000000E+00 -9.03879077E-02
  3.16351924E-02  0.00000000E+00 -1.80844257E-01  1.33414454E-01 -9.03879077E-02
  3.16351924E-02  0.00000000E+00  1.80844257E-01  1.33414454E-01 -9.66051586E-02
 -1.09055877E-01  1.43984857E-02  0.00000000E+00  0.00000000E+00 -6.67296158E-01
  0.00000000E+00  0.00000000E+00  2.08638967E-01  6.74029108E-01  0.00000000E+00
  0.00000000E+00  3.70463222E-01  0.00000000E+00  4.38079315E-02  5.48384781E-02
  0.00000000E+00  3.90374895E-01  3.61808466E-01  4.38079315E-02  5.48384781E-02
  0.00000000E+00 -3.90374895E-01  3.61808466E-01 -2.12587446E-01 -4.77051193E-01
  1.04841880E-01  0.00000000E+00  0.00000000E+00 -6.14962193E-01  0.00000000E+00
  0.00000000E+00  7.66815816E-01 -2.83279541E-01  0.00000000E+00  0.00000000E+00
 -3.13042717E-01  0.00000000E+00 -3.73617949E-01  4.87583480E-01  0.00000000E+00
 -1.99538269E-01 -2.79794856E-01 -3.73617949E-01  4.87583480E-01  0.00000000E+00
  1.99538269E-01 -2.79794856E-01 -2.00814550E-01 -6.31321463E-01 -3.25999521E-01
  0.00000000E+00  0.00000000E+00  6.12192371E-01  0.00000000E+00  0.00000000E+00
 -6.61173538E-01  2.19084607E-01  0.00000000E+00  0.00000000E+00  1.72011995E-01
  0.00000000E+00 -4.67542661E-01  5.82894457E-01  0.00000000E+00 -2.50844093E-01
  5.86487188E-01 -4.67542661E-01  5.82894457E-01  0.00000000E+00  2.50844093E-01
  5.86487188E-01  3.84943808E-01  1.60910165E+00 -6.16604031E-01  0.00000000E+00
  0.00000000E+00 -3.32196441E-01  0.00000000E+00  0.00000000E+00 -5.50845934E-01
  1.16392045E-01  0.00000000E+00  0.00000000E+00 -3.65144705E-01  0.00000000E+00
 -9.01109514E-01  4.39108067E-01  0.00000000E+00  5.17186527E-01 -2.78294389E-01
 -9.01109514E-01  4.39108067E-01  0.00000000E+00 -5.17186527E-01 -2.78294389E-01
 -8.35504687E-02 -9.73592883E-01  3.94020149E+00  0.00000000E+00  0.00000000E+00
 -1.75018611E-01  0.00000000E+00  0.00000000E+00 -1.69779447E+00  1.84338158E-01
  0.00000000E+00  0.00000000E+00 -5.01426973E-01  0.00000000E+00 -1.43322031E+00
 -7.83506456E-01  0.00000000E+00  7.31924859E-01 -3.20580260E-01 -1.43322031E+00
 -7.83506456E-01  0.00000000E+00 -7.31924859E-01 -3.20580260E-01  0.00000000E+00
  0.00000000E+00  0.00000000E+00  0.00000000E+00  0.00000000E+00  0.00000000E+00
  0.00000000E+00  0.00000000E+00  0.00000000E+00  0.00000000E+00  0.00000000E+00
  0.00000000E+00  0.00000000E+00  6.31145694E-01  0.00000000E+00  0.00000000E+00
  4.22761069E-01  0.00000000E+00  0.00000000E+00  0.00000000E+00  0.00000000E+00
 -4.22761069E-01  0.00000000E+00  0.00000000E+00  0.00000000E+00  0.00000000E+00
  0.00000000E+00  0.00000000E+00  0.00000000E+00  0.00000000E+00  0.00000000E+00
  0.00000000E+00  0.00000000E+00  0.00000000E+00  0.00000000E+00  0.00000000E+00
  0.00000000E+00 -8.59684329E-01  0.00000000E+00  0.00000000E+00  6.41717157E-01
  0.00000000E+00  0.00000000E+00  0.00000000E+00  0.00000000E+00 -6.41717157E-01
  0.00000000E+00  0.00000000E+00  0.00000000E+00  0.00000000E+00  0.00000000E+00
  3.71645907E-01  0.00000000E+00  0.00000000E+00  4.48626713E-01  0.00000000E+00
  0.00000000E+00  0.00000000E+00 -1.25853344E-01  0.00000000E+00  0.00000000E+00
  0.00000000E+00  0.00000000E+00  0.00000000E+00  2.95068979E-01  0.00000000E+00
  0.00000000E+00  0.00000000E+00  0.00000000E+00  2.95068979E-01  0.00000000E+00
  0.00000000E+00  0.00000000E+00  0.00000000E+00  0.00000000E+00  3.45805609E-01
  0.00000000E+00  0.00000000E+00  2.18246351E-01  0.00000000E+00  0.00000000E+00
  0.00000000E+00  8.08253456E-01  0.00000000E+00  0.00000000E+00  0.00000000E+00
  0.00000000E+00  0.00000000E+00 -2.11318354E-01  0.00000000E+00  0.00000000E+00
  0.00000000E+00  0.00000000E+00 -2.11318354E-01  0.00000000E+00  0.00000000E+00
  0.00000000E+00  0.00000000E+00  0.00000000E+00  8.27525701E-01  0.00000000E+00
  0.00000000E+00 -2.04689222E-01  0.00000000E+00  0.00000000E+00  0.00000000E+00
 -5.51410630E-01  0.00000000E+00  0.00000000E+00  0.00000000E+00  0.00000000E+00
  0.00000000E+00 -4.83131706E-01  0.00000000E+00  0.00000000E+00  0.00000000E+00
  0.00000000E+00 -4.83131706E-01  0.00000000E+00  0.00000000E+00  0.00000000E+00
  0.00000000E+00  0.00000000E+00 -6.28241284E-01  0.00000000E+00  0.00000000E+00
  1.18993641E+00  0.00000000E+00  0.00000000E+00  0.00000000E+00 -3.58648456E-01
  0.00000000E+00  0.00000000E+00  0.00000000E+00  0.00000000E+00  0.00000000E+00
 -5.85441182E-01  0.00000000E+00  0.00000000E+00  0.00000000E+00  0.00000000E+00
 -5.85441182E-01  0.00000000E+00  0.00000000E+00  0.00000000E+00  0.00000000E+00
  0.00000000E+00  0.00000000E+00  3.04998863E-01  0.00000000E+00  0.00000000E+00
  4.00783584E-01  0.00000000E+00  0.00000000E+00  0.00000000E+00 -8.09722967E-02
  0.00000000E+00  0.00000000E+00  2.29471271E-01  1.25142547E-01  0.00000000E+00
  4.43936775E-03  1.37732499E-01 -2.29471271E-01 -1.25142547E-01  0.00000000E+00
  4.43936775E-03 -1.37732499E-01  0.00000000E+00  0.00000000E+00  0.00000000E+00
  0.00000000E+00 -2.93666986E-01  0.00000000E+00  0.00000000E+00  1.69586523E-01
  0.00000000E+00  0.00000000E+00  0.00000000E+00  4.16715723E-01  0.00000000E+00
  0.00000000E+00  1.52293448E-01  1.62928414E-01  0.00000000E+00  3.98181469E-01
 -2.13692529E-01 -1.52293448E-01 -1.62928414E-01  0.00000000E+00  3.98181469E-01
  2.13692529E-01  0.00000000E+00  0.00000000E+00  0.00000000E+00  0.00000000E+00
  3.01216634E-01  0.00000000E+00  0.00000000E+00  3.36537356E-02  0.00000000E+00
  0.00000000E+00  0.00000000E+00  6.56134969E-01  0.00000000E+00  0.00000000E+00
 -2.57202267E-01 -8.73677957E-02  0.00000000E+00  6.43978053E-02  3.16215523E-01
  2.57202267E-01  8.73677957E-02  0.00000000E+00  6.43978053E-02 -3.16215523E-01
  0.00000000E+00  0.00000000E+00  0.00000000E+00  0.00000000E+00 -4.59430485E-01
  0.00000000E+00  0.00000000E+00 -5.36182327E-02  0.00000000E+00  0.00000000E+00
  0.00000000E+00 -4.40258956E-01  0.00000000E+00  0.00000000E+00 -5.56502023E-02
 -1.32076514E-02  0.00000000E+00  3.93861275E-01  5.49308403E-01  5.56502023E-02
  1.32076514E-02  0.00000000E+00  3.93861275E-01 -5.49308403E-01  0.00000000E+00
  0.00000000E+00  0.00000000E+00  0.00000000E+00  1.06326975E+00  0.00000000E+00
  0.00000000E+00 -7.86673504E-01  0.00000000E+00  0.00000000E+00  0.00000000E+00
 -3.35515265E-01  0.00000000E+00  0.00000000E+00  1.42848753E-01 -2.15401477E-01
  0.00000000E+00  6.64022421E-01 -1.95019149E-01 -1.42848753E-01  2.15401477E-01
  0.00000000E+00  6.64022421E-01  1.95019149E-01  0.00000000E+00  0.00000000E+00
  0.00000000E+00  0.00000000E+00  4.25062970E-01  0.00000000E+00  0.00000000E+00
  1.34226803E-02  0.00000000E+00  0.00000000E+00  0.00000000E+00 -4.75398389E-01
  0.00000000E+00  0.00000000E+00 -9.98307320E-01  1.33302617E+00  0.00000000E+00
  1.41144720E-01 -1.82387897E-01  9.98307320E-01 -1.33302617E+00  0.00000000E+00
  1.41144720E-01  1.82387897E-01  0.00000000E+00  0.00000000E+00  0.00000000E+00
  0.00000000E+00  1.90472971E-01  0.00000000E+00  0.00000000E+00  2.16426079E+00