Generated by orca_hess_to_veda_fmu.pyw (minimal fchk for VEDA)
Number of atoms                          I           12
Charge                                   I           -2
Multiplicity                             I            1
Atomic numbers                           I  N=          12
           6            6            6            6            6            6
           8            8            8            8            1            1
Current cartesian coordinates            R  N=          36
     -1.43865570       0.00000000       0.00000000      -0.77907702       1.25003569
      0.00000000       0.77907702       1.25003569      -0.00000000       1.43865570
      0.00000000       0.00000000       0.77907702      -1.25003569       0.00000000
     -0.77907702      -1.25003569      -0.00000000      -1.37264613       2.35681990
      0.00000000       1.37264613       2.35681990      -0.00000000       1.37264613
     -2.35681990       0.00000000      -1.37264613      -2.35681990      -0.00000000
     -2.53322209       0.00000000       0.00000000       2.53322209      -0.00000000
      0.00000000
Cartesian Force Constants                R  N=         666
      0.68152164       0.00000016       0.68669660       0.00000007       0.00000008
      0.07406511      -0.18178954      -0.09821015       0.00000030       0.53411232
     -0.11362395      -0.21983018      -0.00000002      -0.05813897       0.79223721
      0.00000025      -0.00000002      -0.05420998       0.00000007      -0.00000006
      0.17580051      -0.01131618      -0.00044213      -0.00000034      -0.12519175
     -0.00484547      -0.00000020       0.53410936      -0.02157639      -0.00405271
     -0.00000032       0.00484337      -0.08002576      -0.00000056       0.05813703
      0.79224880       0.00000004       0.00000012       0.00811469      -0.00000003
     -0.00000031      -0.08435618      -0.00000009       0.00000043       0.17580313
     -0.00465625       0.00000001      -0.00000002      -0.01132052       0.02157857
     -0.00000017      -0.18178979       0.11362514      -0.00000007       0.68152582
      0.00000004       0.00893441      -0.00000006       0.00044554      -0.00405285
      0.00000012       0.09821165      -0.21983666      -0.00000072      -0.00000319
      0.68670395       0.00000004      -0.00000010       0.00439321       0.00000037
     -0.00000032       0.00811561      -0.00000013       0.00000042      -0.05420976
     -0.00000015      -0.00000027       0.07406460      -0.01131655       0.00044146
      0.00000044       0.00118747       0.00984318       0.00000009       0.02085819
     -0.00330299       0.00000006      -0.18178907      -0.09821035      -0.00000007
      0.53411002       0.02157543      -0.00405252       0.00000020       0.00984865
      0.00606727      -0.00000071       0.00330522      -0.07747220       0.00000039
     -0.11362357      -0.21983089      -0.00000016      -0.05813871       0.79223997
      0.00000007       0.00000019       0.00811456      -0.00000032      -0.00000014
      0.00239817       0.00000007       0.00000009      -0.01705259       0.00000009
      0.00000000      -0.05420993      -0.00000005       0.00000072       0.17580170
     -0.18178850       0.09821125      -0.00000034       0.02085859       0.00330165
     -0.00000009       0.00118655      -0.00984161      -0.00000028      -0.01131601
     -0.00044303       0.00000051      -0.12519297      -0.00484453      -0.00000025
      0.53410714       0.11362455      -0.21983027       0.00000062      -0.00330422
     -0.07747166       0.00000033      -0.00984992       0.00606677       0.00000012
     -0.02157595      -0.00405261       0.00000002       0.00484365      -0.08002679
     -0.00000017       0.05813936       0.79223909       0.00000017      -0.00000058
     -0.05421008       0.00000003       0.00000025      -0.01705278      -0.00000001
     -0.00000011       0.00239857       0.00000006       0.00000030       0.00811441
     -0.00000049      -0.00000058      -0.08435522       0.00000026       0.00000057
      0.17580197       0.02444622       0.01051763       0.00000007      -0.19648436
      0.16827203      -0.00000016      -0.03250670       0.04380307       0.00000024
     -0.00820020      -0.00235518       0.00000022       0.00117022      -0.00422766
     -0.00000011       0.00207532      -0.01377180       0.00000001       0.20567977
      0.02740096      -0.10741324      -0.00000014       0.19149465      -0.42523198
     -0.00000002       0.02601080      -0.02239835       0.00000037       0.00430082
      0.00898064       0.00000008      -0.00768465      -0.00352070      -0.00000007
     -0.01618058       0.03677083      -0.00000008      -0.21936521       0.52146873
     -0.00000005      -0.00000011       0.02008568      -0.00000024      -0.00000017
     -0.06313599      -0.00000003       0.00000022       0.01569113      -0.00000004
      0.00000007      -0.00050635       0.00000009       0.00000006      -0.00116598
     -0.00000000      -0.00000022       0.00963036       0.00000026       0.00000088
      0.02562422      -0.00820010       0.00235448       0.00000025      -0.03250731
     -0.04380240      -0.00000036      -0.19648577      -0.16827269      -0.00000001
      0.02444675      -0.01051747      -0.00000016       0.00207532       0.01377135
      0.00000000       0.00117018       0.00422822       0.00000005       0.00160009
     -0.00376978      -0.00000005       0.20567991      -0.00430113       0.00898040
      0.00000023      -0.02601037      -0.02239764       0.00000063      -0.19149584
     -0.42523426      -0.00000054      -0.02740094      -0.10741395       0.00000037
      0.01618136       0.03677218      -0.00000010       0.00768518      -0.00352027
     -0.00000005       0.00376834       0.01566182      -0.00000057       0.21936583
      0.52146818      -0.00000005      -0.00000006      -0.00050657       0.00000018
      0.00000049       0.01569162       0.00000019      -0.00000016      -0.06313778
      0.00000009      -0.00000006       0.02008558      -0.00000004      -0.00000021
      0.00963030      -0.00000004       0.00000014      -0.00116582      -0.00000030
     -0.00000046       0.00121559       0.00000002      -0.00000048       0.02562561
     -0.00820005      -0.00235455      -0.00000009       0.00116989      -0.00422702
     -0.00000015       0.00207587      -0.01377167      -0.00000009       0.02444633
      0.01051831       0.00000030      -0.19648546       0.16827316      -0.00000012
     -0.03250656       0.04380213       0.00000039      -0.00132739       0.00310005
      0.00000061       0.00251302       0.00659104       0.00000015       0.20568048
      0.00430118       0.00898080       0.00000003      -0.00768466      -0.00352159
      0.00000052      -0.01618085       0.03677189      -0.00000009       0.02740073
     -0.10741340      -0.00000022       0.19149644      -0.42523217      -0.00000021
      0.02600920      -0.02239856      -0.00000001       0.00310078       0.00158479
     -0.00000072      -0.00659179      -0.02879215       0.00000010      -0.21936572
      0.52146660      -0.00000001      -0.00000018      -0.00050644       0.00000026
      0.00000010      -0.00116587      -0.00000013      -0.00000018       0.00963029
     -0.00000018       0.00000100       0.02008553      -0.00000032      -0.00000100
     -0.06313642       0.00000018       0.00000031       0.01569127      -0.00000017
     -0.00000005       0.00044667       0.00000011      -0.00000004      -0.00298497
     -0.00000056       0.00000055       0.02562430       0.02444667      -0.01051804
     -0.00000058       0.00207518       0.01377226       0.00000050       0.00117033
      0.00422677      -0.00000017      -0.00820053       0.00235454       0.00000022
     -0.03250674      -0.04380215      -0.00000008      -0.19648510      -0.16827273
      0.00000015       0.00251291      -0.00659126      -0.00000016      -0.00132698
     -0.00310072       0.00000006       0.00159958      -0.00376985       0.00000011
      0.20568034      -0.02740114      -0.10741416      -0.00000018       0.01618141
      0.03677224       0.00000022       0.00768478      -0.00352189      -0.00000006
     -0.00430161       0.00898110       0.00000033      -0.02601186      -0.02239894
      0.00000029      -0.19149507      -0.42523166      -0.00000045       0.00659170
     -0.02879203      -0.00000017      -0.00309930       0.00158509       0.00000068
      0.00376933       0.01566347      -0.00000051       0.21936623       0.52146627
      0.00000004       0.00000044       0.02008582       0.00000008       0.00000024
      0.00963055       0.00000000      -0.00000005      -0.00116594      -0.00000001
     -0.00000016      -0.00050648       0.00000041       0.00000006       0.01569112
      0.00000004      -0.00000065      -0.06313708      -0.00000017       0.00000007
     -0.00298488      -0.00000008      -0.00000009       0.00044676      -0.00000018
     -0.00000002       0.00121599      -0.00000051       0.00000014       0.02562473
     -0.32381782      -0.00000038      -0.00000015      -0.01514010       0.00574206
     -0.00000023       0.00303055      -0.00213412       0.00000079       0.00067086
     -0.00000055      -0.00000027       0.00303014       0.00213448       0.00000036
     -0.01513958      -0.00574214       0.00000001       0.00331735      -0.00018133
     -0.00000019      -0.00228275      -0.00144872       0.00000065      -0.00228341
      0.00144855       0.00000029       0.00331745       0.00018156       0.00000051
      0.34557877       0.00000025      -0.05196688      -0.00000024      -0.02777296
      0.00217383      -0.00000006       0.00169861      -0.00471865      -0.00000003
     -0.00000000       0.00096715      -0.00000013      -0.00169866      -0.00471860
      0.00000002       0.02777280       0.00217353       0.00000006       0.00112498
      0.00330073       0.00000022      -0.00255791      -0.00041082      -0.00000003
      0.00255821      -0.00041053       0.00000001      -0.00112446       0.00330132
     -0.00000046       0.00000023       0.05016841      -0.00000008       0.00000015
     -0.02441969      -0.00000024      -0.00000041       0.00320296       0.00000018
      0.00000006       0.00508156      -0.00000015       0.00000008      -0.00100648
      0.00000012       0.00000027       0.00508153       0.00000004      -0.00000017
      0.00320305      -0.00000006      -0.00000010      -0.00444074      -0.00000004
      0.00000012      -0.00045965      -0.00000001      -0.00000002      -0.00045966
      0.00000000      -0.00000002      -0.00444099      -0.00000127       0.00000028
      0.01869377       0.00067046       0.00000025       0.00000014       0.00303015
      0.00213436      -0.00000018      -0.01514065      -0.00574281       0.00000026
     -0.32381739      -0.00000054      -0.00000015      -0.01514058       0.00574236
      0.00000032       0.00303095      -0.00213460      -0.00000083      -0.00228322
      0.00144913      -0.00000011       0.00331764       0.00018191      -0.00000064
      0.00331772      -0.00018169       0.00000011      -0.00228310      -0.00144874
      0.00000036      -0.00028147      -0.00000051       0.00000095       0.34557949
      0.00000004       0.00096776       0.00000005      -0.00169860      -0.00471889
     -0.00000022       0.02777301       0.00217302       0.00000039       0.00000023
     -0.05196688      -0.00000033      -0.02777290       0.00217339       0.00000048
      0.00169885      -0.00471840      -0.00000034       0.00255771      -0.00041124
      0.00000004      -0.00112448       0.00330143       0.00000060       0.00112441
      0.00330085      -0.00000011      -0.00255789      -0.00041081       0.00000021
     -0.00000022       0.00014050       0.00000017       0.00000036       0.05016927
     -0.00000023      -0.00000020      -0.00100631       0.00000017       0.00000019
      0.00508138      -0.00000015       0.00000012       0.00320286      -0.00000018
      0.00000001      -0.02441994      -0.00000023      -0.00000014       0.00320276
      0.00000018       0.00000013       0.00508135       0.00000008      -0.00000002
     -0.00045970       0.00000001      -0.00000002      -0.00444067       0.00000006
      0.00000020      -0.00444069      -0.00000007       0.00000000      -0.00045961
      0.00000008      -0.00000004      -0.00003566       0.00000003      -0.00000058
      0.01869422
