
                                 *****************
                                 * O   R   C   A *
                                 *****************

                                            #,                                       
                                            ###                                      
                                            ####                                     
                                            #####                                    
                                            ######                                   
                                           ########,                                 
                                     ,,################,,,,,                         
                               ,,#################################,,                 
                          ,,##########################################,,             
                       ,#########################################, ''#####,          
                    ,#############################################,,   '####,        
                  ,##################################################,,,,####,       
                ,###########''''           ''''###############################       
              ,#####''   ,,,,##########,,,,          '''####'''          '####       
            ,##' ,,,,###########################,,,                        '##       
           ' ,,###''''                  '''############,,,                           
         ,,##''                                '''############,,,,        ,,,,,,###''
      ,#''                                            '''#######################'''  
     '                                                          ''''####''''         
             ,#######,   #######,   ,#######,      ##                                
            ,#'     '#,  ##    ##  ,#'     '#,    #''#        ,####,    ,#,          
            ##       ##  ##   ,#'  ##            #'  '#       #'       ,# #          
            ##       ##  #######   ##           ,######,      #####,      #          
            '#,     ,#'  ##    ##  '#,     ,#' ,#      #,     #,   #      #          
             '#######'   ##     ##  '#######'  #'      '#     '####' #    #          



                #########################################################
                #                        -***-                          #
                #          Department of theory and spectroscopy        #
                #                                                       #
                #                      Frank Neese                      #
                #                                                       #
                #     Directorship, Architecture, Infrastructure        #
                #                    SHARK, DRIVERS                     #
                #        Core code/Algorithms in most modules           #
                #                                                       #
                #        Max Planck Institute fuer Kohlenforschung      #
                #                Kaiser Wilhelm Platz 1                 #
                #                 D-45470 Muelheim/Ruhr                 #
                #                      Germany                          #
                #                                                       #
                #                  All rights reserved                  #
                #                        -***-                          #
                #########################################################


                         Program Version 6.1.0  -  RELEASE   -


 With contributions from (in alphabetic order):
[Max-Planck-Institut fuer Kohlenforschung]                               
  Daniel Aravena         : Magnetic Suceptibility                        
  Michael Atanasov       : Ab Initio Ligand Field Theory (pilot matlab implementation)
  Alexander A. Auer      : GIAO ZORA, VPT2 properties, NMR spectrum      
  Ute Becker             : All parallelization in ORCA, NUMFREQ, NUMCALC 
  Giovanni Bistoni       : ED, misc. LED, open-shell LED, HFLD           
  Dmytro Bykov           : pre 5.0 version of the SCF Hessian            
  Marcos Casanova-Páez   : Triplet and SCS-CIS(D). UHF-(DLPNO)-IP/EA/STEOM-CCSD. UHF-CVS-IP/STEOM-CCSD   
  Vijay G. Chilkuri      : MRCI spin determinant printing, contributions to CSF-ICE 
  Pauline Colinet        : FMM embedding                                 
  Dipayan Datta          : RHF DLPNO-CCSD density                        
  Achintya Kumar Dutta   : EOM-CC, STEOM-CC                              
  Nicolas Foglia         : Exact transition moments, OPA infrastructure, MCD improvements    
  Dmitry Ganyushin       : Spin-Orbit,Spin-Spin,Magnetic field MRCI      
  Miquel Garcia-Rates    : C-PCM and meta-GGA Hessian, CCSD/C-PCM, Gaussian charge scheme 
  Tiago L. C. Gouveia    : GS-ROHF, GS-ROCIS                             
  Yang Guo               : DLPNO-NEVPT2, F12-NEVPT2, CIM, IAO-localization        
  Andreas Hansen         : Spin unrestricted coupled pair/coupled cluster methods 
  Ingolf Harden          : AUTO-CI MPn and infrastructure                
  Benjamin Helmich-Paris : MC-RPA, TRAH-(SCF,CASSCF), AVAS, COSX integrals, SCF dyn. polar., MC-PDFT, srDFT 
  Lee Huntington         : MR-EOM, pCC                                   
  Robert Izsak           : Overlap fitted RIJCOSX, COSX-SCS-MP3, EOM     
  Riya Kayal             : Wick's Theorem for AUTO-CI, AUTO-CI UHF-CCSDT 
  Emily Kempfer          : AUTO-CI RHF CISDT and CCSDT, approximate NEVPT4
  Christian Kollmar      : KDIIS, OOCD, Brueckner-CCSD(T), CCSD density, CASPT2, CASPT2-K, improved NEVPT2 
  Axel Koslowski         : Symmetry handling                             
  Simone Kossmann        : meta-GGA functionals, TD-DFT gradient, OOMP2, (MP2 Hessian; deprecated post 5.0) 
  Lucas Lang             : DCDCAS, Hyperfine gauge corrections, ICE-SOC+SSC
  Marvin Lechner         : AUTO-CI (C++ implementation), FIC-MRCC        
  Spencer Leger          : CASSCF response                               
  Dagmar Lenk            : GEPOL surface, SMD, ORCA-2-JSON               
  Dimitrios Liakos       : Extrapolation schemes; Compound Job, Property file
  Dimitrios Manganas     : Further ROCIS development; embedding schemes. LFT, Crystal Embedding 
  Dimitrios Pantazis     : SARC Basis sets                               
  Anastasios Papadopoulos: AUTO-CI, single reference methods and gradients 
  Taras Petrenko         : pre 6.0 DFT Hessian and TD-DFT gradient,  ECA, NRVS 
  Petra Pikulova         : Analytic Raman intensities                    
  Peter Pinski           : DLPNO-MP2, DLPNO-MP2 Gradient                 
  Shashank Vittal Rao    : ES-AILFT, MagRelax                            
  Christoph Reimann      : Effective Core Potentials                     
  Marius Retegan         : Local ZFS, SOC                                
  Christoph Riplinger    : Optimizer, TS searches, QM/MM, DLPNO-CCSD(T), (RO)-DLPNO pert. Triples 
  Michael Roemelt        : Original ROCIS implementation, recursive CI coupling coefficients
  Masaaki Saitow         : Open-shell DLPNO-CCSD energy and density      
  Barbara Sandhoefer     : DKH picture change effects                    
  Yorick L. A. Schmerwitz: GMF and freeze-and-release deltaSCF, NEB S-IDPP initial path                    
  Kantharuban Sivalingam : CASSCF convergence/infrastructure, NEVPT2, NEVPT3, NEVPT4(SD), FIC-MRCI and CEPA variants
  Bernardo de Souza      : ESD, SOC TD-DFT                               
  Georgi L. Stoychev     : AutoAux, RI-MP2 NMR, DLPNO-MP2 response, X2C  
  Van Anh Tran           : RI-MP2 g-tensors                              
  Willem Van den Heuvel  : Paramagnetic NMR                              
  Zikuan Wang            : NOTCH, Electric field optimization            
  Frank Wennmohs         : Technical directorship and infrastructure     
  Hang Xu                : AUTO-CI-Response properties                   
                                                                         
[FACCTs GmbH]                                                            
  Markus Bursch, Nicolas Foglia, Miquel Garcia-Rates, Ingolf Harden, Hagen Neugebauer, Anastasios Papadopoulos, 
  Christoph Riplinger, Bernardo de Souza, Georgi L. Stoychev                                                    
                                                                 
  APM, various basis sets, CI-OPT, improved COSX, DLPNO-Multilevel,           
  DOCKER, DRACO, updates on ESD, Fragmentator, GOAT, IRC, LR-CPCM, L-BFGS, MBIS, meta-GGA TD-DFT gradient, ML-optimized integration grids, 
  MM, NACMEs, nearIR, NEB, NEB-TS, NL-DFT gradient (VV10), 2- and 3-layer-ONIOM, interface openCOSMO-RS, QMMM,   
  Crystal-QMMM, RESP, rigid body optimization, SF, symmetry and pop. for TD-DFT, various functionals, SOLVATOR                                   
                                                                         
[Other institutions]                                                     
  V. Asgeirsson          : NEB                                           
  Christoph Bannwarth    : sTDA-DFT, sTD-DFT, PBEh-3c, B97-3c, D3        
  Giovanni Bistoni       : ETS/NOCV, ADLD/ADEX, COVALED                  
  Martin Brehm           : Molecular dynamics                            
  Ronald Cardenas        : ETS/NOCV                                      
  Martina Colucci        : COVALED                                       
  Sebastian Ehlert       : rSCAN, r2SCAN, r2SCAN-3c, D4, dhf basis sets  
  Marvin Friede          : D4 for Fr, Ra, Ac-Lr                          
  Lars Goerigk           : TD-DFT with DH, B97 family of functionals     
  Stefan Grimme          : VdW corrections, initial TS optimization, DFT functionals, gCP, sTDA/sTD-DF 
  Waldemar Hujo          : DFT-NL                                        
  H. Jonsson             : NEB                                           
  Holger Kruse           : gCP                                           
  Marcel Mueller         : wB97X-3c, vDZP basis set                      
  Hagen Neugebauer       : wr2SCAN, Native XTB                           
  Gianluca Regni         : ADLD/ADEX                                     
  Tobias Risthaus        : pre 6.0 range-separated hybrid DFT and stability analysis
  Lukas Wittmann         : regularized MP2, r2SCAN double-hybrids, wr2SCAN        
                                                                         
We gratefully acknowledge several colleagues who have allowed us to      
interface, adapt or use parts of their codes:                            
  Ed Valeev, F. Pavosevic, A. Kumar             : LibInt (2-el integral package), F12 methods 
  Garnet Chan, S. Sharma, J. Yang, R. Olivares  : DMRG                   
  Ulf Ekstrom                                   : XCFun DFT Library      
  Mihaly Kallay                                 : mrcc  (arbitrary order and MRCC methods)
  Frank Weinhold                                : gennbo (NPA and NBO analysis)           
  Simon Mueller                                 : openCOSMO-RS                            
  Christopher J. Cramer and Donald G. Truhlar   : smd solvation model                     
  S Lehtola, MJT Oliveira, MAL Marques          : LibXC Library                           
  Liviu Ungur et al                             : ANISO software                          


 Your calculation uses the libint2 library for the computation of 2-el integrals
 For citations please refer to: http://libint.valeyev.net

 Your ORCA version has been built with support for libXC version: 7.0.0
 For citations please refer to: https://libxc.gitlab.io

 This ORCA versions uses:
   CBLAS   interface :  Fast vector & matrix operations
   LAPACKE interface :  Fast linear algebra routines
   Shared memory     :  Shared parallel matrices


  ***********************************
  * Starting time: Sat Nov 15 16:08:37 2025
  * Host name:     MOLECULAR-00
  * Process ID:    37368
  * Working dir.:  C:\orca_work\dehydro_dhbq\tetraoxolene_run
  ***********************************

NOTE: MaxCore=6000 MB was set to SCF,MP2,MDCI,CIPSI,MRCI,RASCI and CIS
      => If you want to overwrite this, your respective input block should be placed after the MaxCore statement
Your calculation utilizes the atom-pairwise dispersion correction
based on EEQ partial charges (D4)


================================================================================

----- Orbital basis set information -----
Your calculation utilizes the basis: def2-SVPD
   F. Weigend and R. Ahlrichs, Phys. Chem. Chem. Phys. 7, 3297 (2005).
   D. Rappoport and F. Furche, J. Chem. Phys. 133, 134105 (2010)
   D. Rappoport, J. Chem. Phys. 155, 124102 (2021).

----- AuxJ basis set information -----
Your calculation utilizes the AutoAux generation procedure.
  G. L. Stoychev, A. A. Auer, F. Neese, J. Chem. Theory Comput. 13, 554 (2017)

----- AuxC basis set information -----
Your calculation utilizes the AutoAux generation procedure.
  G. L. Stoychev, A. A. Auer, F. Neese, J. Chem. Theory Comput. 13, 554 (2017)

----- AuxJK basis set information -----
Your calculation utilizes the AutoAux generation procedure.
  G. L. Stoychev, A. A. Auer, F. Neese, J. Chem. Theory Comput. 13, 554 (2017)

----- AuxX basis set information -----
Your calculation utilizes the AutoAux generation procedure.
  G. L. Stoychev, A. A. Auer, F. Neese, J. Chem. Theory Comput. 13, 554 (2017)

================================================================================
                                        WARNINGS
                       Please study these warnings very carefully!
================================================================================


WARNING: Geometry optimizations can change the point-group symmetry!


WARNING: Geometry Optimization
  ===> : Switching off AutoStart
         For restart on a previous wavefunction, please use MOREAD

================================================================================
                                       INPUT FILE
================================================================================
NAME = tetraoxolene.inp
|  1> %pal nprocs 8 end
|  2> %maxcore 6000
|  3> ! RKS b3lyp D4 def2-SVPD RIJCOSX AutoAux TightSCF defgrid3 Opt Freq usesym
|  4> ! CPCM  # CPCM: continuum solvation model
|  5> 
|  6> %cpcm
|  7>     epsilon 4
|  8> end
|  9> 
| 10> %output
| 11>   Print[P_Basis] 2
| 12>   Print[P_MOs]   1
| 13> end
| 14> 
| 15> * xyz 0 1 
| 16> C       -0.670680580      1.161120000      0.000048350
| 17> C        0.000039830      2.322217000      0.000016780
| 18> C        1.340906420      2.322194000     -0.000063110
| 19> C        2.011587000      1.161074000     -0.000111470
| 20> C        1.340866590     -0.000023000     -0.000079900
| 21> C        0.000000000      0.000000000      0.000000000
| 22> O       -0.749566600      3.621482710      0.000070840
| 23> O        2.090557420      3.621434000     -0.000098390
| 24> O        2.090473020     -1.299288710     -0.000133950
| 25> O       -0.749651000     -1.299240000      0.000035280
| 26> H       -1.771891000      1.161138890      0.000113970
| 27> H        3.112797420      1.161055110     -0.000177080
| 28> *
| 29> 
| 30>                          ****END OF INPUT****
================================================================================
-----------------------
SYMMETRY HANDLING SETUP
-----------------------
Auto-detected point group .... D2h
Reduced point group       .... D2h
Root mean square distance .... 0.000000005612504 au
Maximum distance          .... 0.000000009064141 au
Threshold in use          .... 0.000100000000000 au
Time for symmetry setup   .... 0.000 s


Symmetry-perfected Cartesians for point group D2h:

Index  Symbol        Symmetry-perfected Cartesians (x, y, z; au)
   0     C     -2.53437557691937   0.00000000000000   0.00000000000000
   1     C     -1.26693532104784   2.19417707714816  -0.00000000000000
   2     C      1.26693532104784   2.19417707714816   0.00000000000000
   3     C      2.53437557691937   0.00000000000000   0.00000000000000
   4     C      1.26693532104784  -2.19417707714816  -0.00000000000000
   5     C     -1.26693532104784  -2.19417707714816   0.00000000000000
   6     O     -2.68352829724425   4.64940915223871  -0.00000000000000
   7     O      2.68352829724425   4.64940915223871   0.00000000000000
   8     O      2.68352829724425  -4.64940915223871  -0.00000000000000
   9     O     -2.68352829724425  -4.64940915223871   0.00000000000000
  10     H     -4.61536169054001   0.00000000000000   0.00000000000000
  11     H      4.61536169054001  -0.00000000000000   0.00000000000000

Index  Symbol        Symmetry-perfected Cartesians (x, y, z; Ang)
   0     C     -1.34113379257790   0.00000000000000   0.00000000000000
   1     C     -0.67043329628876   1.16110850020112  -0.00000000000000
   2     C      0.67043329628876   1.16110850020112   0.00000000000000
   3     C      1.34113379257790   0.00000000000000   0.00000000000000
   4     C      0.67043329628876  -1.16110850020112  -0.00000000000000
   5     C     -0.67043329628876  -1.16110850020112   0.00000000000000
   6     O     -1.42006201272976   2.46036135542615  -0.00000000000000
   7     O      1.42006201272976   2.46036135542615   0.00000000000000
   8     O      1.42006201272976  -2.46036135542615  -0.00000000000000
   9     O     -1.42006201272976  -2.46036135542615   0.00000000000000
  10     H     -2.44234421469473   0.00000000000000   0.00000000000000
  11     H      2.44234421469473  -0.00000000000000   0.00000000000000

                       *****************************
                       * Geometry Optimization Run *
                       *****************************

Geometry optimization settings:
Update method            Update   .... BFGS
Choice of coordinates    CoordSys .... (2022) Redundant Internals
Initial Hessian          InHess   .... Almloef's Model
Max. no of cycles        MaxIter  .... 50
Use symmetry                      .... yes
Preserve point group              .... no
Clean up coordinates              .... yes
Clean up gradient                 .... no

Convergence Tolerances:
Energy Change            TolE     ....  5.0000e-06 Eh
Max. Gradient            TolMAXG  ....  3.0000e-04 Eh/bohr
RMS Gradient             TolRMSG  ....  1.0000e-04 Eh/bohr
Max. Displacement        TolMAXD  ....  4.0000e-03 bohr
RMS Displacement         TolRMSD  ....  2.0000e-03 bohr
Strict Convergence                .... False

------------------------------------------------------------------------------
                        ORCA OPTIMIZATION COORDINATE SETUP
------------------------------------------------------------------------------

The optimization will be done in redundant internal coordinates (2022)
Making redundant internal coordinates   ...  (2022 redundants) done
Evaluating the initial hessian          ...  (Almloef) done
Evaluating the coordinates              ...  done
Calculating the B-matrix                .... done
Calculating the G-matrix                .... done
The number of degrees of freedom        ....   54

    -----------------------------------------------------------------
                    Redundant Internal Coordinates


    -----------------------------------------------------------------
         Definition                    Initial Value    Approx d2E/dq
    -----------------------------------------------------------------
      1. B(C   1,C   0)                  1.3409         0.748299   
      2. B(C   2,C   1)                  1.3409         0.748390   
      3. B(C   3,C   2)                  1.3409         0.748299   
      4. B(C   4,C   3)                  1.3409         0.748299   
      5. B(C   5,C   4)                  1.3409         0.748390   
      6. B(C   5,C   0)                  1.3409         0.748299   
      7. B(O   6,C   1)                  1.5000         0.373574   
      8. B(O   7,C   2)                  1.5000         0.373574   
      9. B(O   8,C   4)                  1.5000         0.373574   
     10. B(O   9,C   5)                  1.5000         0.373574   
     11. B(H  10,C   0)                  1.1012         0.345571   
     12. B(H  11,C   3)                  1.1012         0.345571   
     13. A(C   1,C   0,C   5)          119.9753         0.464732   
     14. A(C   5,C   0,H  10)          120.0124         0.361831   
     15. A(C   1,C   0,H  10)          120.0124         0.361831   
     16. A(C   0,C   1,O   6)          120.0040         0.407423   
     17. A(C   2,C   1,O   6)          119.9836         0.407432   
     18. A(C   0,C   1,C   2)          120.0124         0.464742   
     19. A(C   1,C   2,O   7)          119.9836         0.407432   
     20. A(C   1,C   2,C   3)          120.0124         0.464742   
     21. A(C   3,C   2,O   7)          120.0040         0.407423   
     22. A(C   2,C   3,C   4)          119.9753         0.464732   
     23. A(C   4,C   3,H  11)          120.0124         0.361831   
     24. A(C   2,C   3,H  11)          120.0124         0.361831   
     25. A(C   5,C   4,O   8)          119.9836         0.407432   
     26. A(C   3,C   4,O   8)          120.0040         0.407423   
     27. A(C   3,C   4,C   5)          120.0124         0.464742   
     28. A(C   4,C   5,O   9)          119.9836         0.407432   
     29. A(C   0,C   5,O   9)          120.0040         0.407423   
     30. A(C   0,C   5,C   4)          120.0124         0.464742   
     31. D(O   6,C   1,C   0,C   5)    180.0000         0.039916   
     32. D(O   6,C   1,C   0,H  10)      0.0000         0.039916   
     33. D(C   2,C   1,C   0,H  10)    180.0000         0.039916   
     34. D(C   2,C   1,C   0,C   5)      0.0000         0.039916   
     35. D(O   7,C   2,C   1,C   0)    180.0000         0.039926   
     36. D(C   3,C   2,C   1,C   0)      0.0000         0.039926   
     37. D(C   3,C   2,C   1,O   6)    180.0000         0.039926   
     38. D(O   7,C   2,C   1,O   6)      0.0000         0.039926   
     39. D(H  11,C   3,C   2,O   7)      0.0000         0.039916   
     40. D(H  11,C   3,C   2,C   1)    180.0000         0.039916   
     41. D(C   4,C   3,C   2,O   7)    180.0000         0.039916   
     42. D(C   4,C   3,C   2,C   1)      0.0000         0.039916   
     43. D(O   8,C   4,C   3,C   2)    180.0000         0.039916   
     44. D(C   5,C   4,C   3,H  11)    180.0000         0.039916   
     45. D(C   5,C   4,C   3,C   2)      0.0000         0.039916   
     46. D(O   8,C   4,C   3,H  11)      0.0000         0.039916   
     47. D(O   9,C   5,C   4,O   8)      0.0000         0.039926   
     48. D(C   0,C   5,C   4,O   8)    180.0000         0.039926   
     49. D(C   0,C   5,C   4,C   3)      0.0000         0.039926   
     50. D(O   9,C   5,C   0,H  10)      0.0000         0.039916   
     51. D(O   9,C   5,C   0,C   1)    180.0000         0.039916   
     52. D(O   9,C   5,C   4,C   3)    180.0000         0.039926   
     53. D(C   4,C   5,C   0,H  10)    180.0000         0.039916   
     54. D(C   4,C   5,C   0,C   1)      0.0000         0.039916   
    -----------------------------------------------------------------

Number of atoms                         .... 12
Number of degrees of freedom            .... 54


         *************************************************************
         *                GEOMETRY OPTIMIZATION CYCLE   1            *
         *************************************************************
---------------------------------
CARTESIAN COORDINATES (ANGSTROEM)
---------------------------------
  C     -1.341134    0.000000    0.000000
  C     -0.670433    1.161109   -0.000000
  C      0.670433    1.161109    0.000000
  C      1.341134    0.000000    0.000000
  C      0.670433   -1.161109   -0.000000
  C     -0.670433   -1.161109    0.000000
  O     -1.420062    2.460361   -0.000000
  O      1.420062    2.460361    0.000000
  O      1.420062   -2.460361   -0.000000
  O     -1.420062   -2.460361    0.000000
  H     -2.442344    0.000000    0.000000
  H      2.442344   -0.000000    0.000000

----------------------------
CARTESIAN COORDINATES (A.U.)
----------------------------
  NO LB      ZA    FRAG     MASS         X           Y           Z
   0 C     6.0000    0    12.011   -2.534376    0.000000    0.000000
   1 C     6.0000    0    12.011   -1.266935    2.194177   -0.000000
   2 C     6.0000    0    12.011    1.266935    2.194177    0.000000
   3 C     6.0000    0    12.011    2.534376    0.000000    0.000000
   4 C     6.0000    0    12.011    1.266935   -2.194177   -0.000000
   5 C     6.0000    0    12.011   -1.266935   -2.194177    0.000000
   6 O     8.0000    0    15.999   -2.683528    4.649409   -0.000000
   7 O     8.0000    0    15.999    2.683528    4.649409    0.000000
   8 O     8.0000    0    15.999    2.683528   -4.649409   -0.000000
   9 O     8.0000    0    15.999   -2.683528   -4.649409    0.000000
  10 H     1.0000    0     1.008   -4.615362    0.000000    0.000000
  11 H     1.0000    0     1.008    4.615362   -0.000000    0.000000

--------------------------------
INTERNAL COORDINATES (ANGSTROEM)
--------------------------------
 C      0   0   0     0.000000000000     0.00000000     0.00000000
 C      1   0   0     1.340899740024     0.00000000     0.00000000
 C      2   1   0     1.340866592577   120.01236647     0.00000000
 C      3   2   1     1.340899734181   120.01236682     0.00000000
 C      4   3   2     1.340899740024   119.97526671     0.00000000
 C      5   4   3     1.340866592578   120.01236647     0.00000000
 O      2   1   3     1.500000396000   120.00401678   180.00000085
 O      3   2   1     1.500000400215   119.98361650   180.00000000
 O      5   4   3     1.500000396000   120.00401678   180.00000085
 O      6   5   4     1.500000400215   119.98361650   180.00000000
 H      1   2   3     1.101210422117   120.01236643   179.99999915
 H      4   3   2     1.101210422117   120.01236686   180.00000085

---------------------------
INTERNAL COORDINATES (A.U.)
---------------------------
 C      0   0   0     0.000000000000     0.00000000     0.00000000
 C      1   0   0     2.533933281691     0.00000000     0.00000000
 C      2   1   0     2.533870642095   120.01236647     0.00000000
 C      3   2   1     2.533933270651   120.01236682     0.00000000
 C      4   3   2     2.533933281691   119.97526671     0.00000000
 C      5   4   3     2.533870642096   120.01236647     0.00000000
 O      2   1   3     2.834589949214   120.00401678   180.00000085
 O      3   2   1     2.834589957179   119.98361650   180.00000000
 O      5   4   3     2.834589949214   120.00401678   180.00000085
 O      6   5   4     2.834589957179   119.98361650   180.00000000
 H      1   2   3     2.080986113621   120.01236643   179.99999915
 H      4   3   2     2.080986113620   120.01236686   180.00000085

---------------------
BASIS SET INFORMATION
---------------------
There are 3 groups of distinct atoms

 Group   1 Type C   : 8s4p2d contracted to 4s2p2d pattern {5111/31/11}
 Group   2 Type O   : 8s5p2d contracted to 4s3p2d pattern {5111/311/11}
 Group   3 Type H   : 4s2p contracted to 2s2p pattern {31/11}

Atom   0C    basis set group =>   1
Atom   1C    basis set group =>   1
Atom   2C    basis set group =>   1
Atom   3C    basis set group =>   1
Atom   4C    basis set group =>   1
Atom   5C    basis set group =>   1
Atom   6O    basis set group =>   2
Atom   7O    basis set group =>   2
Atom   8O    basis set group =>   2
Atom   9O    basis set group =>   2
Atom  10H    basis set group =>   3
Atom  11H    basis set group =>   3

-------------------------
BASIS SET IN INPUT FORMAT
-------------------------

 # Basis set for element : H 
 NewGTO H 
 S 3 
   1      13.0107010000      0.0334854848
   2       1.9622572000      0.2347218709
   3       0.4445379600      0.8137702853
 S 1 
   1       0.1219496200      1.0000000000
 P 1 
   1       0.8000000000      1.0000000000
 P 1 
   1       0.1170409905      1.0000000000
  end;

 # Basis set for element : C 
 NewGTO C 
 S 5 
   1    1238.4016938000      0.0055173650
   2     186.2900499200      0.0410888285
   3      42.2511763460      0.1822538213
   4      11.6765579320      0.4682845944
   5       3.5930506482      0.4457581734
 S 1 
   1       0.4024514736      1.0000000000
 S 1 
   1       0.1309018267      1.0000000000
 P 3 
   1       9.4680970621      0.0568883320
   2       2.0103545142      0.3129405934
   3       0.5477100471      0.7606501651
 P 1 
   1       0.1526861379      1.0000000000
 D 1 
   1       0.8000000000      1.0000000000
 S 1 
   1       0.0670535403      1.0000000000
 D 1 
   1       0.1171318514      1.0000000000
  end;

 # Basis set for element : O 
 NewGTO O 
 S 5 
   1    2266.1767785000     -0.0053893504
   2     340.8701019100     -0.0402347214
   3      77.3631351670     -0.1800818421
   4      21.4796449400     -0.4682885766
   5       6.6589433124     -0.4469261716
 S 1 
   1       0.8097597567      1.0000000000
 S 1 
   1       0.2553077223      1.0000000000
 P 3 
   1      17.7215043170      0.0626302488
   2       3.8635505440      0.3333113849
   3       1.0480920883      0.7414863830
 P 1 
   1       0.2764154441      1.0000000000
 D 1 
   1       1.2000000000      1.0000000000
 S 1 
   1       0.0765724533      1.0000000000
 P 1 
   1       0.0690022764      1.0000000000
 D 1 
   1       0.1799202432      1.0000000000
  end;

---------------------------------
AUXILIARY/J BASIS SET INFORMATION
---------------------------------
There are 3 groups of distinct atoms

 Group   1 Type C   : 15s11p11d4f contracted to 15s11p11d4f pattern {111111111111111/11111111111/11111111111/1111}
 Group   2 Type O   : 16s13p12d5f contracted to 16s13p12d5f pattern {1111111111111111/1111111111111/111111111111/11111}
 Group   3 Type H   : 10s4p4d contracted to 10s4p4d pattern {1111111111/1111/1111}

Atom   0C    basis set group =>   1
Atom   1C    basis set group =>   1
Atom   2C    basis set group =>   1
Atom   3C    basis set group =>   1
Atom   4C    basis set group =>   1
Atom   5C    basis set group =>   1
Atom   6O    basis set group =>   2
Atom   7O    basis set group =>   2
Atom   8O    basis set group =>   2
Atom   9O    basis set group =>   2
Atom  10H    basis set group =>   3
Atom  11H    basis set group =>   3

-------------------------------------
AUXILIARY/J BASIS SET IN INPUT FORMAT
-------------------------------------

 # Auxiliary/J basis set for element : H 
 NewAuxJGTO H 
 S 1 
   1      46.4323356391      1.0000000000
 S 1 
   1      25.7957420217      1.0000000000
 S 1 
   1      14.3309677898      1.0000000000
 S 1 
   1       7.9616487721      1.0000000000
 S 1 
   1       4.4231382067      1.0000000000
 S 1 
   1       2.4572990037      1.0000000000
 S 1 
   1       1.3651661132      1.0000000000
 S 1 
   1       0.7584256184      1.0000000000
 S 1 
   1       0.4213475658      1.0000000000
 S 1 
   1       0.2340819810      1.0000000000
 P 1 
   1       1.8726558480      1.0000000000
 P 1 
   1       0.9363279240      1.0000000000
 P 1 
   1       0.4681639620      1.0000000000
 P 1 
   1       0.2340819810      1.0000000000
 D 1 
   1       2.4925049337      1.0000000000
 D 1 
   1       1.1329567880      1.0000000000
 D 1 
   1       0.5149803582      1.0000000000
 D 1 
   1       0.2340819810      1.0000000000
  end;

 # Auxiliary/J basis set for element : C 
 NewAuxJGTO C 
 S 1 
   1     502.6512649629      1.0000000000
 S 1 
   1     279.2507027572      1.0000000000
 S 1 
   1     155.1392793095      1.0000000000
 S 1 
   1      86.1884885053      1.0000000000
 S 1 
   1      47.8824936141      1.0000000000
 S 1 
   1      26.6013853411      1.0000000000
 S 1 
   1      14.7785474117      1.0000000000
 S 1 
   1       8.2103041176      1.0000000000
 S 1 
   1       4.5612800654      1.0000000000
 S 1 
   1       2.5340444808      1.0000000000
 S 1 
   1       1.4078024893      1.0000000000
 S 1 
   1       0.7821124941      1.0000000000
 S 1 
   1       0.4345069411      1.0000000000
 S 1 
   1       0.2413927451      1.0000000000
 S 1 
   1       0.1341070806      1.0000000000
 P 1 
   1      78.4573319402      1.0000000000
 P 1 
   1      43.5874066334      1.0000000000
 P 1 
   1      24.2152259075      1.0000000000
 P 1 
   1      13.4529032819      1.0000000000
 P 1 
   1       7.4738351566      1.0000000000
 P 1 
   1       4.1521306426      1.0000000000
 P 1 
   1       2.3067392459      1.0000000000
 P 1 
   1       1.2815218033      1.0000000000
 P 1 
   1       0.7119565574      1.0000000000
 P 1 
   1       0.3955314208      1.0000000000
 P 1 
   1       0.2197396782      1.0000000000
 D 1 
   1      65.7627904688      1.0000000000
 D 1 
   1      36.5348835938      1.0000000000
 D 1 
   1      20.2971575521      1.0000000000
 D 1 
   1      11.2761986401      1.0000000000
 D 1 
   1       6.2645548000      1.0000000000
 D 1 
   1       3.4803082222      1.0000000000
 D 1 
   1       1.9335045679      1.0000000000
 D 1 
   1       1.0741692044      1.0000000000
 D 1 
   1       0.5967606691      1.0000000000
 D 1 
   1       0.3315337051      1.0000000000
 D 1 
   1       0.1841853917      1.0000000000
 F 1 
   1       2.4944399074      1.0000000000
 F 1 
   1       1.1338363216      1.0000000000
 F 1 
   1       0.5153801462      1.0000000000
 F 1 
   1       0.2342637028      1.0000000000
  end;

 # Auxiliary/J basis set for element : O 
 NewAuxJGTO O 
 S 1 
   1     931.0671211793      1.0000000000
 S 1 
   1     517.2595117663      1.0000000000
 S 1 
   1     287.3663954257      1.0000000000
 S 1 
   1     159.6479974587      1.0000000000
 S 1 
   1      88.6933319215      1.0000000000
 S 1 
   1      49.2740732897      1.0000000000
 S 1 
   1      27.3744851610      1.0000000000
 S 1 
   1      15.2080473116      1.0000000000
 S 1 
   1       8.4489151731      1.0000000000
 S 1 
   1       4.6938417629      1.0000000000
 S 1 
   1       2.6076898683      1.0000000000
 S 1 
   1       1.4487165935      1.0000000000
 S 1 
   1       0.8048425519      1.0000000000
 S 1 
   1       0.4471347511      1.0000000000
 S 1 
   1       0.2484081950      1.0000000000
 S 1 
   1       0.1380045528      1.0000000000
 P 1 
   1     159.6479974587      1.0000000000
 P 1 
   1      88.6933319215      1.0000000000
 P 1 
   1      49.2740732897      1.0000000000
 P 1 
   1      27.3744851610      1.0000000000
 P 1 
   1      15.2080473116      1.0000000000
 P 1 
   1       8.4489151731      1.0000000000
 P 1 
   1       4.6938417629      1.0000000000
 P 1 
   1       2.6076898683      1.0000000000
 P 1 
   1       1.4487165935      1.0000000000
 P 1 
   1       0.8048425519      1.0000000000
 P 1 
   1       0.4471347511      1.0000000000
 P 1 
   1       0.2484081950      1.0000000000
 P 1 
   1       0.1380045528      1.0000000000
 D 1 
   1      88.6933319215      1.0000000000
 D 1 
   1      49.2740732897      1.0000000000
 D 1 
   1      27.3744851610      1.0000000000
 D 1 
   1      15.2080473116      1.0000000000
 D 1 
   1       8.4489151731      1.0000000000
 D 1 
   1       4.6938417629      1.0000000000
 D 1 
   1       2.6076898683      1.0000000000
 D 1 
   1       1.4487165935      1.0000000000
 D 1 
   1       0.8048425519      1.0000000000
 D 1 
   1       0.4471347511      1.0000000000
 D 1 
   1       0.2484081950      1.0000000000
 D 1 
   1       0.1380045528      1.0000000000
 F 1 
   1       5.8311593751      1.0000000000
 F 1 
   1       2.6505269887      1.0000000000
 F 1 
   1       1.2047849949      1.0000000000
 F 1 
   1       0.5476295431      1.0000000000
 F 1 
   1       0.2489225196      1.0000000000
  end;

---------------------------------
AUXILIARY/C BASIS SET INFORMATION
---------------------------------
There are 3 groups of distinct atoms

 Group   1 Type C   : 15s11p11d4f contracted to 15s11p11d4f pattern {111111111111111/11111111111/11111111111/1111}
 Group   2 Type O   : 16s13p12d5f contracted to 16s13p12d5f pattern {1111111111111111/1111111111111/111111111111/11111}
 Group   3 Type H   : 10s4p4d contracted to 10s4p4d pattern {1111111111/1111/1111}

Atom   0C    basis set group =>   1
Atom   1C    basis set group =>   1
Atom   2C    basis set group =>   1
Atom   3C    basis set group =>   1
Atom   4C    basis set group =>   1
Atom   5C    basis set group =>   1
Atom   6O    basis set group =>   2
Atom   7O    basis set group =>   2
Atom   8O    basis set group =>   2
Atom   9O    basis set group =>   2
Atom  10H    basis set group =>   3
Atom  11H    basis set group =>   3

-------------------------------------
AUXILIARY/C BASIS SET IN INPUT FORMAT
-------------------------------------

 # Auxiliary/C basis set for element : H 
 NewAuxCGTO H 
 S 1 
   1      46.4323356391      1.0000000000
 S 1 
   1      25.7957420217      1.0000000000
 S 1 
   1      14.3309677898      1.0000000000
 S 1 
   1       7.9616487721      1.0000000000
 S 1 
   1       4.4231382067      1.0000000000
 S 1 
   1       2.4572990037      1.0000000000
 S 1 
   1       1.3651661132      1.0000000000
 S 1 
   1       0.7584256184      1.0000000000
 S 1 
   1       0.4213475658      1.0000000000
 S 1 
   1       0.2340819810      1.0000000000
 P 1 
   1       1.8726558480      1.0000000000
 P 1 
   1       0.9363279240      1.0000000000
 P 1 
   1       0.4681639620      1.0000000000
 P 1 
   1       0.2340819810      1.0000000000
 D 1 
   1       2.4925049337      1.0000000000
 D 1 
   1       1.1329567880      1.0000000000
 D 1 
   1       0.5149803582      1.0000000000
 D 1 
   1       0.2340819810      1.0000000000
  end;

 # Auxiliary/C basis set for element : C 
 NewAuxCGTO C 
 S 1 
   1     502.6512649629      1.0000000000
 S 1 
   1     279.2507027572      1.0000000000
 S 1 
   1     155.1392793095      1.0000000000
 S 1 
   1      86.1884885053      1.0000000000
 S 1 
   1      47.8824936141      1.0000000000
 S 1 
   1      26.6013853411      1.0000000000
 S 1 
   1      14.7785474117      1.0000000000
 S 1 
   1       8.2103041176      1.0000000000
 S 1 
   1       4.5612800654      1.0000000000
 S 1 
   1       2.5340444808      1.0000000000
 S 1 
   1       1.4078024893      1.0000000000
 S 1 
   1       0.7821124941      1.0000000000
 S 1 
   1       0.4345069411      1.0000000000
 S 1 
   1       0.2413927451      1.0000000000
 S 1 
   1       0.1341070806      1.0000000000
 P 1 
   1      78.4573319402      1.0000000000
 P 1 
   1      43.5874066334      1.0000000000
 P 1 
   1      24.2152259075      1.0000000000
 P 1 
   1      13.4529032819      1.0000000000
 P 1 
   1       7.4738351566      1.0000000000
 P 1 
   1       4.1521306426      1.0000000000
 P 1 
   1       2.3067392459      1.0000000000
 P 1 
   1       1.2815218033      1.0000000000
 P 1 
   1       0.7119565574      1.0000000000
 P 1 
   1       0.3955314208      1.0000000000
 P 1 
   1       0.2197396782      1.0000000000
 D 1 
   1      65.7627904688      1.0000000000
 D 1 
   1      36.5348835938      1.0000000000
 D 1 
   1      20.2971575521      1.0000000000
 D 1 
   1      11.2761986401      1.0000000000
 D 1 
   1       6.2645548000      1.0000000000
 D 1 
   1       3.4803082222      1.0000000000
 D 1 
   1       1.9335045679      1.0000000000
 D 1 
   1       1.0741692044      1.0000000000
 D 1 
   1       0.5967606691      1.0000000000
 D 1 
   1       0.3315337051      1.0000000000
 D 1 
   1       0.1841853917      1.0000000000
 F 1 
   1       2.4944399074      1.0000000000
 F 1 
   1       1.1338363216      1.0000000000
 F 1 
   1       0.5153801462      1.0000000000
 F 1 
   1       0.2342637028      1.0000000000
  end;

 # Auxiliary/C basis set for element : O 
 NewAuxCGTO O 
 S 1 
   1     931.0671211793      1.0000000000
 S 1 
   1     517.2595117663      1.0000000000
 S 1 
   1     287.3663954257      1.0000000000
 S 1 
   1     159.6479974587      1.0000000000
 S 1 
   1      88.6933319215      1.0000000000
 S 1 
   1      49.2740732897      1.0000000000
 S 1 
   1      27.3744851610      1.0000000000
 S 1 
   1      15.2080473116      1.0000000000
 S 1 
   1       8.4489151731      1.0000000000
 S 1 
   1       4.6938417629      1.0000000000
 S 1 
   1       2.6076898683      1.0000000000
 S 1 
   1       1.4487165935      1.0000000000
 S 1 
   1       0.8048425519      1.0000000000
 S 1 
   1       0.4471347511      1.0000000000
 S 1 
   1       0.2484081950      1.0000000000
 S 1 
   1       0.1380045528      1.0000000000
 P 1 
   1     159.6479974587      1.0000000000
 P 1 
   1      88.6933319215      1.0000000000
 P 1 
   1      49.2740732897      1.0000000000
 P 1 
   1      27.3744851610      1.0000000000
 P 1 
   1      15.2080473116      1.0000000000
 P 1 
   1       8.4489151731      1.0000000000
 P 1 
   1       4.6938417629      1.0000000000
 P 1 
   1       2.6076898683      1.0000000000
 P 1 
   1       1.4487165935      1.0000000000
 P 1 
   1       0.8048425519      1.0000000000
 P 1 
   1       0.4471347511      1.0000000000
 P 1 
   1       0.2484081950      1.0000000000
 P 1 
   1       0.1380045528      1.0000000000
 D 1 
   1      88.6933319215      1.0000000000
 D 1 
   1      49.2740732897      1.0000000000
 D 1 
   1      27.3744851610      1.0000000000
 D 1 
   1      15.2080473116      1.0000000000
 D 1 
   1       8.4489151731      1.0000000000
 D 1 
   1       4.6938417629      1.0000000000
 D 1 
   1       2.6076898683      1.0000000000
 D 1 
   1       1.4487165935      1.0000000000
 D 1 
   1       0.8048425519      1.0000000000
 D 1 
   1       0.4471347511      1.0000000000
 D 1 
   1       0.2484081950      1.0000000000
 D 1 
   1       0.1380045528      1.0000000000
 F 1 
   1       5.8311593751      1.0000000000
 F 1 
   1       2.6505269887      1.0000000000
 F 1 
   1       1.2047849949      1.0000000000
 F 1 
   1       0.5476295431      1.0000000000
 F 1 
   1       0.2489225196      1.0000000000
  end;

----------------------------------
AUXILIARY/JK BASIS SET INFORMATION
----------------------------------
There are 3 groups of distinct atoms

 Group   1 Type C   : 15s11p11d4f contracted to 15s11p11d4f pattern {111111111111111/11111111111/11111111111/1111}
 Group   2 Type O   : 16s13p12d5f contracted to 16s13p12d5f pattern {1111111111111111/1111111111111/111111111111/11111}
 Group   3 Type H   : 10s4p4d contracted to 10s4p4d pattern {1111111111/1111/1111}

Atom   0C    basis set group =>   1
Atom   1C    basis set group =>   1
Atom   2C    basis set group =>   1
Atom   3C    basis set group =>   1
Atom   4C    basis set group =>   1
Atom   5C    basis set group =>   1
Atom   6O    basis set group =>   2
Atom   7O    basis set group =>   2
Atom   8O    basis set group =>   2
Atom   9O    basis set group =>   2
Atom  10H    basis set group =>   3
Atom  11H    basis set group =>   3

--------------------------------------
AUXILIARY/JK BASIS SET IN INPUT FORMAT
--------------------------------------

 # Auxiliary/JK basis set for element : H 
 NewAuxJKGTO H 
 S 1 
   1      46.4323356391      1.0000000000
 S 1 
   1      25.7957420217      1.0000000000
 S 1 
   1      14.3309677898      1.0000000000
 S 1 
   1       7.9616487721      1.0000000000
 S 1 
   1       4.4231382067      1.0000000000
 S 1 
   1       2.4572990037      1.0000000000
 S 1 
   1       1.3651661132      1.0000000000
 S 1 
   1       0.7584256184      1.0000000000
 S 1 
   1       0.4213475658      1.0000000000
 S 1 
   1       0.2340819810      1.0000000000
 P 1 
   1       1.8726558480      1.0000000000
 P 1 
   1       0.9363279240      1.0000000000
 P 1 
   1       0.4681639620      1.0000000000
 P 1 
   1       0.2340819810      1.0000000000
 D 1 
   1       2.4925049337      1.0000000000
 D 1 
   1       1.1329567880      1.0000000000
 D 1 
   1       0.5149803582      1.0000000000
 D 1 
   1       0.2340819810      1.0000000000
  end;

 # Auxiliary/JK basis set for element : C 
 NewAuxJKGTO C 
 S 1 
   1     502.6512649629      1.0000000000
 S 1 
   1     279.2507027572      1.0000000000
 S 1 
   1     155.1392793095      1.0000000000
 S 1 
   1      86.1884885053      1.0000000000
 S 1 
   1      47.8824936141      1.0000000000
 S 1 
   1      26.6013853411      1.0000000000
 S 1 
   1      14.7785474117      1.0000000000
 S 1 
   1       8.2103041176      1.0000000000
 S 1 
   1       4.5612800654      1.0000000000
 S 1 
   1       2.5340444808      1.0000000000
 S 1 
   1       1.4078024893      1.0000000000
 S 1 
   1       0.7821124941      1.0000000000
 S 1 
   1       0.4345069411      1.0000000000
 S 1 
   1       0.2413927451      1.0000000000
 S 1 
   1       0.1341070806      1.0000000000
 P 1 
   1      78.4573319402      1.0000000000
 P 1 
   1      43.5874066334      1.0000000000
 P 1 
   1      24.2152259075      1.0000000000
 P 1 
   1      13.4529032819      1.0000000000
 P 1 
   1       7.4738351566      1.0000000000
 P 1 
   1       4.1521306426      1.0000000000
 P 1 
   1       2.3067392459      1.0000000000
 P 1 
   1       1.2815218033      1.0000000000
 P 1 
   1       0.7119565574      1.0000000000
 P 1 
   1       0.3955314208      1.0000000000
 P 1 
   1       0.2197396782      1.0000000000
 D 1 
   1      65.7627904688      1.0000000000
 D 1 
   1      36.5348835938      1.0000000000
 D 1 
   1      20.2971575521      1.0000000000
 D 1 
   1      11.2761986401      1.0000000000
 D 1 
   1       6.2645548000      1.0000000000
 D 1 
   1       3.4803082222      1.0000000000
 D 1 
   1       1.9335045679      1.0000000000
 D 1 
   1       1.0741692044      1.0000000000
 D 1 
   1       0.5967606691      1.0000000000
 D 1 
   1       0.3315337051      1.0000000000
 D 1 
   1       0.1841853917      1.0000000000
 F 1 
   1       2.4944399074      1.0000000000
 F 1 
   1       1.1338363216      1.0000000000
 F 1 
   1       0.5153801462      1.0000000000
 F 1 
   1       0.2342637028      1.0000000000
  end;

 # Auxiliary/JK basis set for element : O 
 NewAuxJKGTO O 
 S 1 
   1     931.0671211793      1.0000000000
 S 1 
   1     517.2595117663      1.0000000000
 S 1 
   1     287.3663954257      1.0000000000
 S 1 
   1     159.6479974587      1.0000000000
 S 1 
   1      88.6933319215      1.0000000000
 S 1 
   1      49.2740732897      1.0000000000
 S 1 
   1      27.3744851610      1.0000000000
 S 1 
   1      15.2080473116      1.0000000000
 S 1 
   1       8.4489151731      1.0000000000
 S 1 
   1       4.6938417629      1.0000000000
 S 1 
   1       2.6076898683      1.0000000000
 S 1 
   1       1.4487165935      1.0000000000
 S 1 
   1       0.8048425519      1.0000000000
 S 1 
   1       0.4471347511      1.0000000000
 S 1 
   1       0.2484081950      1.0000000000
 S 1 
   1       0.1380045528      1.0000000000
 P 1 
   1     159.6479974587      1.0000000000
 P 1 
   1      88.6933319215      1.0000000000
 P 1 
   1      49.2740732897      1.0000000000
 P 1 
   1      27.3744851610      1.0000000000
 P 1 
   1      15.2080473116      1.0000000000
 P 1 
   1       8.4489151731      1.0000000000
 P 1 
   1       4.6938417629      1.0000000000
 P 1 
   1       2.6076898683      1.0000000000
 P 1 
   1       1.4487165935      1.0000000000
 P 1 
   1       0.8048425519      1.0000000000
 P 1 
   1       0.4471347511      1.0000000000
 P 1 
   1       0.2484081950      1.0000000000
 P 1 
   1       0.1380045528      1.0000000000
 D 1 
   1      88.6933319215      1.0000000000
 D 1 
   1      49.2740732897      1.0000000000
 D 1 
   1      27.3744851610      1.0000000000
 D 1 
   1      15.2080473116      1.0000000000
 D 1 
   1       8.4489151731      1.0000000000
 D 1 
   1       4.6938417629      1.0000000000
 D 1 
   1       2.6076898683      1.0000000000
 D 1 
   1       1.4487165935      1.0000000000
 D 1 
   1       0.8048425519      1.0000000000
 D 1 
   1       0.4471347511      1.0000000000
 D 1 
   1       0.2484081950      1.0000000000
 D 1 
   1       0.1380045528      1.0000000000
 F 1 
   1       5.8311593751      1.0000000000
 F 1 
   1       2.6505269887      1.0000000000
 F 1 
   1       1.2047849949      1.0000000000
 F 1 
   1       0.5476295431      1.0000000000
 F 1 
   1       0.2489225196      1.0000000000
  end;

---------------------------------
AUXILIARY/X BASIS SET INFORMATION
---------------------------------
There are 3 groups of distinct atoms

 Group   1 Type C   : 15s11p11d4f contracted to 15s11p11d4f pattern {111111111111111/11111111111/11111111111/1111}
 Group   2 Type O   : 16s13p12d5f contracted to 16s13p12d5f pattern {1111111111111111/1111111111111/111111111111/11111}
 Group   3 Type H   : 10s4p4d contracted to 10s4p4d pattern {1111111111/1111/1111}

Atom   0C    basis set group =>   1
Atom   1C    basis set group =>   1
Atom   2C    basis set group =>   1
Atom   3C    basis set group =>   1
Atom   4C    basis set group =>   1
Atom   5C    basis set group =>   1
Atom   6O    basis set group =>   2
Atom   7O    basis set group =>   2
Atom   8O    basis set group =>   2
Atom   9O    basis set group =>   2
Atom  10H    basis set group =>   3
Atom  11H    basis set group =>   3

-------------------------------------
AUXILIARY/X BASIS SET IN INPUT FORMAT
-------------------------------------

 # Auxiliary/X basis set for element : H 
 NewAuxXGTO H 
 S 1 
   1      46.4323356391      1.0000000000
 S 1 
   1      25.7957420217      1.0000000000
 S 1 
   1      14.3309677898      1.0000000000
 S 1 
   1       7.9616487721      1.0000000000
 S 1 
   1       4.4231382067      1.0000000000
 S 1 
   1       2.4572990037      1.0000000000
 S 1 
   1       1.3651661132      1.0000000000
 S 1 
   1       0.7584256184      1.0000000000
 S 1 
   1       0.4213475658      1.0000000000
 S 1 
   1       0.2340819810      1.0000000000
 P 1 
   1       1.8726558480      1.0000000000
 P 1 
   1       0.9363279240      1.0000000000
 P 1 
   1       0.4681639620      1.0000000000
 P 1 
   1       0.2340819810      1.0000000000
 D 1 
   1       2.4925049337      1.0000000000
 D 1 
   1       1.1329567880      1.0000000000
 D 1 
   1       0.5149803582      1.0000000000
 D 1 
   1       0.2340819810      1.0000000000
  end;

 # Auxiliary/X basis set for element : C 
 NewAuxXGTO C 
 S 1 
   1     502.6512649629      1.0000000000
 S 1 
   1     279.2507027572      1.0000000000
 S 1 
   1     155.1392793095      1.0000000000
 S 1 
   1      86.1884885053      1.0000000000
 S 1 
   1      47.8824936141      1.0000000000
 S 1 
   1      26.6013853411      1.0000000000
 S 1 
   1      14.7785474117      1.0000000000
 S 1 
   1       8.2103041176      1.0000000000
 S 1 
   1       4.5612800654      1.0000000000
 S 1 
   1       2.5340444808      1.0000000000
 S 1 
   1       1.4078024893      1.0000000000
 S 1 
   1       0.7821124941      1.0000000000
 S 1 
   1       0.4345069411      1.0000000000
 S 1 
   1       0.2413927451      1.0000000000
 S 1 
   1       0.1341070806      1.0000000000
 P 1 
   1      78.4573319402      1.0000000000
 P 1 
   1      43.5874066334      1.0000000000
 P 1 
   1      24.2152259075      1.0000000000
 P 1 
   1      13.4529032819      1.0000000000
 P 1 
   1       7.4738351566      1.0000000000
 P 1 
   1       4.1521306426      1.0000000000
 P 1 
   1       2.3067392459      1.0000000000
 P 1 
   1       1.2815218033      1.0000000000
 P 1 
   1       0.7119565574      1.0000000000
 P 1 
   1       0.3955314208      1.0000000000
 P 1 
   1       0.2197396782      1.0000000000
 D 1 
   1      65.7627904688      1.0000000000
 D 1 
   1      36.5348835938      1.0000000000
 D 1 
   1      20.2971575521      1.0000000000
 D 1 
   1      11.2761986401      1.0000000000
 D 1 
   1       6.2645548000      1.0000000000
 D 1 
   1       3.4803082222      1.0000000000
 D 1 
   1       1.9335045679      1.0000000000
 D 1 
   1       1.0741692044      1.0000000000
 D 1 
   1       0.5967606691      1.0000000000
 D 1 
   1       0.3315337051      1.0000000000
 D 1 
   1       0.1841853917      1.0000000000
 F 1 
   1       2.4944399074      1.0000000000
 F 1 
   1       1.1338363216      1.0000000000
 F 1 
   1       0.5153801462      1.0000000000
 F 1 
   1       0.2342637028      1.0000000000
  end;

 # Auxiliary/X basis set for element : O 
 NewAuxXGTO O 
 S 1 
   1     931.0671211793      1.0000000000
 S 1 
   1     517.2595117663      1.0000000000
 S 1 
   1     287.3663954257      1.0000000000
 S 1 
   1     159.6479974587      1.0000000000
 S 1 
   1      88.6933319215      1.0000000000
 S 1 
   1      49.2740732897      1.0000000000
 S 1 
   1      27.3744851610      1.0000000000
 S 1 
   1      15.2080473116      1.0000000000
 S 1 
   1       8.4489151731      1.0000000000
 S 1 
   1       4.6938417629      1.0000000000
 S 1 
   1       2.6076898683      1.0000000000
 S 1 
   1       1.4487165935      1.0000000000
 S 1 
   1       0.8048425519      1.0000000000
 S 1 
   1       0.4471347511      1.0000000000
 S 1 
   1       0.2484081950      1.0000000000
 S 1 
   1       0.1380045528      1.0000000000
 P 1 
   1     159.6479974587      1.0000000000
 P 1 
   1      88.6933319215      1.0000000000
 P 1 
   1      49.2740732897      1.0000000000
 P 1 
   1      27.3744851610      1.0000000000
 P 1 
   1      15.2080473116      1.0000000000
 P 1 
   1       8.4489151731      1.0000000000
 P 1 
   1       4.6938417629      1.0000000000
 P 1 
   1       2.6076898683      1.0000000000
 P 1 
   1       1.4487165935      1.0000000000
 P 1 
   1       0.8048425519      1.0000000000
 P 1 
   1       0.4471347511      1.0000000000
 P 1 
   1       0.2484081950      1.0000000000
 P 1 
   1       0.1380045528      1.0000000000
 D 1 
   1      88.6933319215      1.0000000000
 D 1 
   1      49.2740732897      1.0000000000
 D 1 
   1      27.3744851610      1.0000000000
 D 1 
   1      15.2080473116      1.0000000000
 D 1 
   1       8.4489151731      1.0000000000
 D 1 
   1       4.6938417629      1.0000000000
 D 1 
   1       2.6076898683      1.0000000000
 D 1 
   1       1.4487165935      1.0000000000
 D 1 
   1       0.8048425519      1.0000000000
 D 1 
   1       0.4471347511      1.0000000000
 D 1 
   1       0.2484081950      1.0000000000
 D 1 
   1       0.1380045528      1.0000000000
 F 1 
   1       5.8311593751      1.0000000000
 F 1 
   1       2.6505269887      1.0000000000
 F 1 
   1       1.2047849949      1.0000000000
 F 1 
   1       0.5476295431      1.0000000000
 F 1 
   1       0.2489225196      1.0000000000
  end;



           ************************************************************
           *        Program running with 8 parallel MPI-processes     *
           *              working on a common directory               *
           ************************************************************
------------------------------------------------------------------------------
                             ORCA STARTUP CALCULATIONS
                           -- RI-GTO INTEGRALS CHOSEN --
------------------------------------------------------------------------------
------------------------------------------------------------------------------
                   ___                                                        
                  /   \      - P O W E R E D   B Y -                         
                 /     \                                                     
                 |  |  |   _    _      __       _____    __    __             
                 |  |  |  | |  | |    /  \     |  _  \  |  |  /  |          
                  \  \/   | |  | |   /    \    | | | |  |  | /  /          
                 / \  \   | |__| |  /  /\  \   | |_| |  |  |/  /          
                |  |  |   |  __  | /  /__\  \  |    /   |      \           
                |  |  |   | |  | | |   __   |  |    \   |  |\   \          
                \     /   | |  | | |  |  |  |  | |\  \  |  | \   \       
                 \___/    |_|  |_| |__|  |__|  |_| \__\ |__|  \__/        
                                                                              
                      - O R C A' S   B I G   F R I E N D -                    
                                      &                                       
                       - I N T E G R A L  F E E D E R -                       
                                                                              
 v1 FN, 2020, v2 2021, v3 2022-2024                                           
------------------------------------------------------------------------------


----------------------
SHARK INTEGRAL PACKAGE
----------------------

Number of atoms                             ...     12
Number of basis functions                   ...    228
Number of shells                            ...     92
Maximum angular momentum                    ...      2
Integral batch strategy                     ... SHARK/LIBINT Hybrid
RI-J (if used) integral strategy            ... SPLIT-RIJ (Revised 2003 algorithm where possible)
Printlevel                                  ...      1
Contraction scheme used                     ... SEGMENTED contraction
Prescreening option                         ... SCHWARTZ
   Thresh                                   ... 2.500e-11
   Tcut                                     ... 2.500e-12
   Tpresel                                  ... 2.500e-12 
Coulomb Range Separation                    ... NOT USED
Exchange Range Separation                   ... NOT USED
Multipole approximations                    ... NOT USED
Finite Nucleus Model                        ... NOT USED
CABS basis                                  ... NOT available
Auxiliary Coulomb fitting basis             ... AVAILABLE
   # of basis functions in Aux-J            ...   1470
   # of shells in Aux-J                     ...    466
   Maximum angular momentum in Aux-J        ...      3
Auxiliary J/K fitting basis                 ... AVAILABLE
   # of basis functions in Aux-JK           ...   1470
   # of shells in Aux-JK                    ...    466
   Maximum angular momentum in Aux-JK       ...      3
Auxiliary Correlation fitting basis         ... AVAILABLE
   # of basis functions in Aux-C            ...   1470
   # of shells in Aux-C                     ...    466
   Maximum angular momentum in Aux-C        ...      3
Auxiliary 'external' fitting basis          ... NOT available

Checking pre-screening integrals            ... done (  0.0 sec) Dimension = 92
   => SHARK Basis and OBASIS are compatible. Storing Pre-screening
Shell pair information
Shell pair cut-off parameter TPreSel        ...   2.5e-12
Total number of shell pairs                 ...      4278
Shell pairs after pre-screening             ...      4100
Total number of primitive shell pairs       ...     12382
Primitive shell pairs kept                  ...      9405
          la=0 lb=0:    923 shell pairs
          la=1 lb=0:   1186 shell pairs
          la=1 lb=1:    397 shell pairs
          la=2 lb=0:    840 shell pairs
          la=2 lb=1:    548 shell pairs
          la=2 lb=2:    206 shell pairs

Checking whether 4 symmetric matrices of dimension 228 fit in memory
:Max Core in MB      =   6000.00
 MB in use           =      7.59
 MB left             =   5992.41
 MB needed           =      0.80
 Data fit in memory  = YES
Calculating RI/J V-Matrix + Cholesky decomp.... done (  0.1 sec)
Calculating RI/JK V-Matrix + Cholesky decomp.... done (  0.1 sec)
Calculating RI/C V-Matrix + Cholesky decomp.... done (  0.1 sec)
Calculating Nuclear repulsion               ... done (  0.0 sec) ENN=    462.262263804164 Eh

Diagonalization of the overlap matrix:
Smallest eigenvalue                        ... 1.233e+01
Time for diagonalization                   ...    0.005 sec
Threshold for overlap eigenvalues          ... 1.000e-07
Number of eigenvalues below threshold      ... 0
Time for construction of square roots      ...    0.003 sec
Total time needed                          ...    0.009 sec

-------------------
DFT GRID GENERATION
-------------------

General Integration Accuracy     IntAcc      ... 4.959
Radial Grid Type                 RadialGrid  ... OptM3 with GC (2021)
Angular Grid (max. ang.)         AngularGrid ... 6 (Lebedev-590)
Angular grid pruning method      GridPruning ... 4 (adaptive)
Weight generation scheme         WeightScheme... mBecke (2022)
Basis function cutoff            BFCut       ... 1.0000e-11
Integration weight cutoff        WCut        ... 1.0000e-14
Partially contracted basis set               ... off
Rotationally invariant grid construction     ... off
Angular grids for H and He will be reduced by one unit
Diffuse basis detected: some atoms will have their outermost
                        angular grid increased by 1.

Total number of grid points                  ...   164618
Total number of batches                      ...     2576
Average number of points per batch           ...       63
Average number of grid points per atom       ...    13718

--------------------
COSX GRID GENERATION
--------------------

GRIDX 1
-------
General Integration Accuracy     IntAcc      ... 4.020
Radial Grid Type                 RadialGrid  ... OptM3 with GC (2021)
Angular Grid (max. ang.)         AngularGrid ... 2 (Lebedev-110)
Angular grid pruning method      GridPruning ... 4 (adaptive)
Weight generation scheme         WeightScheme... mBecke (2022)
Basis function cutoff            BFCut       ... 1.0000e-11
Integration weight cutoff        WCut        ... 1.0000e-14
Partially contracted basis set               ... on
Rotationally invariant grid construction     ... off
Angular grids for H and He will be reduced by one unit
Diffuse basis detected: some atoms will have their outermost
                        angular grid increased by 1.

Total number of grid points                  ...    21322
Total number of batches                      ...      176
Average number of points per batch           ...      121
Average number of grid points per atom       ...     1777
UseSFitting                                  ... on

GRIDX 2
-------
General Integration Accuracy     IntAcc      ... 4.338
Radial Grid Type                 RadialGrid  ... OptM3 with GC (2021)
Angular Grid (max. ang.)         AngularGrid ... 3 (Lebedev-194)
Angular grid pruning method      GridPruning ... 4 (adaptive)
Weight generation scheme         WeightScheme... mBecke (2022)
Basis function cutoff            BFCut       ... 1.0000e-11
Integration weight cutoff        WCut        ... 1.0000e-14
Partially contracted basis set               ... on
Rotationally invariant grid construction     ... off
Angular grids for H and He will be reduced by one unit
Diffuse basis detected: some atoms will have their outermost
                        angular grid increased by 1.

Total number of grid points                  ...    47102
Total number of batches                      ...      376
Average number of points per batch           ...      125
Average number of grid points per atom       ...     3925
UseSFitting                                  ... on

GRIDX 3
-------
General Integration Accuracy     IntAcc      ... 4.871
Radial Grid Type                 RadialGrid  ... OptM3 with GC (2021)
Angular Grid (max. ang.)         AngularGrid ... 4 (Lebedev-302)
Angular grid pruning method      GridPruning ... 4 (adaptive)
Weight generation scheme         WeightScheme... mBecke (2022)
Basis function cutoff            BFCut       ... 1.0000e-11
Integration weight cutoff        WCut        ... 1.0000e-14
Partially contracted basis set               ... on
Rotationally invariant grid construction     ... off
Angular grids for H and He will be reduced by one unit
Diffuse basis detected: some atoms will have their outermost
                        angular grid increased by 1.

Total number of grid points                  ...    84090
Total number of batches                      ...      662
Average number of points per batch           ...      127
Average number of grid points per atom       ...     7008
UseSFitting                                  ... on
Grids setup in   1.8 sec
Initializing property integral containers    ... done (  0.0 sec)

SHARK setup successfully completed in   2.2 seconds

Maximum memory used throughout the entire STARTUP-calculation: 37.0 MB


           ************************************************************
           *        Program running with 8 parallel MPI-processes     *
           *              working on a common directory               *
           ************************************************************
-------------------------------------------------------------------------------
                                 ORCA GUESS
                   Start orbitals & Density for SCF / CASSCF
-------------------------------------------------------------------------------

------------
SCF SETTINGS
------------
Hamiltonian:
 Density Functional     Method          .... DFT(GTOs)
 Exchange Functional    Exchange        .... B88
   X-Alpha parameter    XAlpha          ....  0.666667
   Becke's b parameter  XBeta           ....  0.004200
 Correlation Functional Correlation     .... LYP
 LDA part of GGA corr.  LDAOpt          .... VWN-5
 Gradients option       PostSCFGGA      .... off
 Hybrid DFT is turned on
   Fraction HF Exchange ScalHFX         ....  0.200000
   Scaling of DF-GGA-X  ScalDFX         ....  0.720000
   Scaling of DF-GGA-C  ScalDFC         ....  0.810000
   Scaling of DF-LDA-C  ScalLDAC        ....  1.000000
   Perturbative correction              ....  0.000000
   NL short-range parameter             ....  4.800000
 RI-approximation to the Coulomb term is turned on
   Number of AuxJ basis functions       .... 1470
   RIJ-COSX (HFX calculated with COS-X)).... on


General Settings:
 Integral files         IntName         .... tetraoxolene
 Hartree-Fock type      HFTyp           .... RHF
 Total Charge           Charge          ....    0
 Multiplicity           Mult            ....    1
 Number of Electrons    NEL             ....   70
 Basis Dimension        Dim             ....  228
 Nuclear Repulsion      ENuc            ....    462.2622638042 Eh

 Symmetry handling      UseSym         .... ON
 Point group                           .... D2h
 Symmetry-adapted orbitals             .... D2h
 Petite-list algorithm                 .... OFF
 Number of irreps                      .... 8
   Irrep   Ag has   44 symmetry adapted basis functions (ofs=   0)
   Irrep  B1g has   36 symmetry adapted basis functions (ofs=  44)
   Irrep  B2g has   19 symmetry adapted basis functions (ofs=  80)
   Irrep  B3g has   15 symmetry adapted basis functions (ofs=  99)
   Irrep   Au has   15 symmetry adapted basis functions (ofs= 114)
   Irrep  B1u has   19 symmetry adapted basis functions (ofs= 129)
   Irrep  B2u has   36 symmetry adapted basis functions (ofs= 148)
   Irrep  B3u has   44 symmetry adapted basis functions (ofs= 184)

Convergence Acceleration:
 AO-DIIS                CNVDIIS         .... on
   Start iteration      DIISMaxIt       ....    12
   Startup error        DIISStart       ....  0.200000
   # of expansion vecs  DIISMaxEq       ....     5
   Bias factor          DIISBfac        ....   1.050
   Max. coefficient     DIISMaxC        ....  10.000
 MO-DIIS                CNVKDIIS        .... off
 Trust-Rad. Augm. Hess. CNVTRAH         .... auto
   Auto Start mean grad. ratio tolernc. ....  1.125000
   Auto Start start iteration           ....    50
   Auto Start num. interpolation iter.  ....    10
   Max. Number of Micro iterations      ....    24
   Max. Number of Macro iterations      .... Maxiter - #DIIS iter
   Number of Davidson start vectors     ....     2
   Converg. threshold    (grad. norm)   ....   1.000e-05
   Grad. Scal. Fac. for Micro threshold ....   0.100
   Minimum threshold for Micro iter.    ....   1.000e-02
   NR start threshold (gradient norm)   ....   1.000e-04
   Initial trust radius                 ....   0.400
   Minimum AH scaling param. (alpha)    ....   1.000
   Maximum AH scaling param. (alpha)    .... 1000.000
   Quad. conv. algorithm                .... NR
   White noise on init. David. guess    .... on
   Maximum white noise                  ....   0.010
   Pseudo random numbers                .... off
   Inactive MOs                         .... canonical
   Orbital update algorithm             .... Taylor
   Preconditioner                       .... Diag
   Full preconditioner red. dimension   ....   250
 SOSCF                 CNVSOSCF           .... on
   Start iteration     SOSCFMaxIt         ....   150
   Startup grad/error  SOSCFStart         ....  0.003300
   Hessian update      SOSCFHessUp        .... L-BFGS
   Autom. constraints  SOSCFAutoConstrain .... off
 Level Shifting         CNVShift        .... on
   Level shift para.    LevelShift      ....    0.2500
   Turn off err/grad.   ShiftErr        ....    0.0010
 Zerner damping         CNVZerner       .... off
 Static damping         CNVDamp         .... on
   Fraction old density DampFac         ....    0.7000
   Max. Damping (<1)    DampMax         ....    0.9800
   Min. Damping (>=0)   DampMin         ....    0.0000
   Turn off err/grad.   DampErr         ....    0.1000

SCF Procedure:
 Maximum # iterations   MaxIter         ....   125
 SCF integral mode      SCFMode         .... Direct
   Integral package                     .... SHARK and LIBINT hybrid scheme
 Reset frequency        DirectResetFreq ....    20
 Integral Threshold     Thresh          ....  2.500e-11 Eh
 Primitive CutOff       TCut            ....  2.500e-12 Eh

Convergence Tolerance:
 Convergence Check Mode ConvCheckMode   .... Total+1el-Energy
 Convergence forced     ConvForced      .... 0
 Energy Change          TolE            ....  1.000e-08 Eh
 1-El. energy change                    ....  1.000e-05 Eh
 Orbital Gradient       TolG            ....  1.000e-05
 Orbital Rotation angle TolX            ....  1.000e-05
 DIIS Error             TolErr          ....  5.000e-07

------------------------------
INITIAL GUESS: MODEL POTENTIAL
------------------------------
Loading Hartree-Fock densities                     ... done
Calculating cut-offs                               ... done
Initializing the effective Hamiltonian             ... done
Setting up the integral package (SHARK)            ... done
Starting the Coulomb interaction                   ... done (   0.0 sec)
Making the grid                                    ... done (   0.1 sec)
Mapping shells                                     ... done
Starting the XC term evaluation                    ... done (   0.1 sec)
  promolecular density results
     # of electrons  =     69.998000830
     EX              =    -63.984170738
     EC              =     -2.459919987
     EX+EC           =    -66.444090724
Diagonalizing the Hamiltonian                      ... done (   0.0 sec)
Now organizing SCF variables                       ... done
Number of occupied orbitals per irrep:
  Ag   -    9
  B1g  -    6
  B2g  -    1
  B3g  -    1
  Au   -    1
  B1u  -    2
  B2u  -    7
  B3u  -    8
                      ------------------
                      INITIAL GUESS DONE (   0.2 sec)
                      ------------------
             **** ENERGY FILE WAS UPDATED (tetraoxolene.en.tmp) ****
Finished Guess after   0.3 sec
Maximum memory used throughout the entire GUESS-calculation: 10.6 MB


           ************************************************************
           *        Program running with 8 parallel MPI-processes     *
           *              working on a common directory               *
           ************************************************************

-------------------------------------------------------------------------------------------
                                      ORCA LEAN-SCF
                              memory conserving SCF solver
-------------------------------------------------------------------------------------------

--------------------
CPCM SOLVATION MODEL
--------------------
CPCM parameters:
  Epsilon                                         ...       4.0000
  Refrac                                          ...       1.3300
  Rsolv                                           ...       1.3000
  Surface type                                    ... GAUSSIAN VDW
  Discretization scheme                           ... Constant charge density
    Threshold for H atoms                         ...       5.0000 (charges/Ang^2)
    Threshold for non-H atoms                     ...       5.0000 (charges/Ang^2)
  Epsilon function type                           ...         CPCM
Solvent:                                          ... CUSTOM
Radii:
  Scheme                                          ... Element-dependent radii
  Radius for C  used is    3.8550 Bohr (=   2.0400 Ang.)
  Radius for O  used is    3.4469 Bohr (=   1.8240 Ang.)
  Radius for H  used is    2.4944 Bohr (=   1.3200 Ang.)
Calculating surface                               ...        done! (  0.0s)
Cavity surface points                             ...         1322
Cavity Volume                                     ...    1036.5914
Cavity Surface-area                               ...     592.1834
Calculating surface distance matrix               ...        done! (  0.0s)
Performing Cholesky decomposition & store         ...        done! (  0.0s)
Overall time for CPCM initialization              ...                 0.1s

----------------------------------------D-I-I-S--------------------------------------------
Iteration    Energy (Eh)           Delta-E    RMSDP     MaxDP     DIISErr   Damp  Time(sec)
-------------------------------------------------------------------------------------------
               ***  Starting incremental Fock matrix formation  ***
    1    -529.5212127809478488     0.00e+00  2.41e-02  2.44e-01  1.73e-01  0.700   1.8
Warning: op=0 Small HOMO/LUMO gap (   0.042) - skipping pre-diagonalization
         Will do a full diagonalization
    2    -529.6264967369259011    -1.05e-01  1.59e-02  1.37e-01  4.54e-02  0.700   1.1
                               ***Turning on AO-DIIS***
    3    -529.6506359178054026    -2.41e-02  1.03e-02  1.01e-01  2.65e-02  0.700   1.1
    4    -529.6689820449488479    -1.83e-02  2.22e-02  2.19e-01  2.07e-02  0.000   1.0
    5    -529.7162125500037746    -4.72e-02  1.54e-03  1.24e-02  6.93e-03  0.000   1.1
                              *** Initializing SOSCF ***
---------------------------------------S-O-S-C-F--------------------------------------
Iteration    Energy (Eh)           Delta-E    RMSDP     MaxDP     MaxGrad    Time(sec)
--------------------------------------------------------------------------------------
    6    -529.7166566743461544    -4.44e-04  4.21e-04  3.72e-03  2.81e-03     1.0
               *** Restarting incremental Fock matrix formation ***
    7    -529.7167243613354231    -6.77e-05  2.93e-04  2.73e-03  1.12e-03     1.7
    8    -529.7167118538644672     1.25e-05  3.60e-04  4.59e-03  1.55e-03     1.5
    9    -529.7167443279836334    -3.25e-05  1.94e-04  1.64e-03  2.11e-04     1.5
   10    -529.7167448000855074    -4.72e-07  6.92e-05  5.57e-04  2.12e-04     1.4
   11    -529.7167459611015374    -1.16e-06  5.24e-05  4.46e-04  3.20e-05     1.4
   12    -529.7167459872520112    -2.62e-08  1.87e-05  1.67e-04  1.94e-05     1.4
   13    -529.7167459940368417    -6.78e-09  6.18e-05  5.60e-04  1.98e-06     1.1
                 **** Energy Check signals convergence ****

               *****************************************************
               *                     SUCCESS                       *
               *           SCF CONVERGED AFTER  13 CYCLES          *
               *****************************************************

Recomputing exchange energy using gridx3       ... done (    1.882 sec)
Old exchange energy                            :    -12.769140691 Eh
New exchange energy                            :    -12.769115378 Eh
Exchange energy change after final integration :      0.000025312 Eh
Total energy after final integration           :   -529.716720706 Eh
             **** ENERGY FILE WAS UPDATED (tetraoxolene.en.tmp) ****

----------------
TOTAL SCF ENERGY
----------------

Total Energy       :       -529.71672070597981 Eh          -14414.32478 eV

Components:
Nuclear Repulsion  :        462.26226380416358 Eh           12578.79569 eV
Electronic Energy  :       -991.95530002418207 Eh          -26992.47598 eV
One Electron Energy:      -1637.09600753149789 Eh          -44547.64712 eV
Two Electron Energy:        645.14070750731582 Eh           17555.17114 eV
CPCM Dielectric    :         -0.02370979826922 Eh              -0.64518 eV

Virial components:
Potential Energy   :      -1054.50408431753976 Eh          -28694.51494 eV
Kinetic Energy     :        524.78736361155995 Eh           14280.19015 eV
Virial Ratio       :          2.00939305599986

DFT components:
N(Alpha)           :       35.000110981312 electrons
N(Beta)            :       35.000110981312 electrons
N(Total)           :       70.000221962623 electrons
E(X)               :      -51.116214271476 Eh       
E(C)               :       -2.890951056314 Eh       
E(XC)              :      -54.007165327791 Eh       

CPCM Solvation Model Properties:
Surface-charge          :         -0.01928974084083
Corrected charge        :          0.00000000000000
Outlying charge corr.   :          0.00002087864172 Eh               0.00057 eV
Free-energy (cav+disp)  :  This term is not implemented in the current solvation scheme

---------------
SCF CONVERGENCE
---------------

  Last Energy change         ...    6.7848e-09  Tolerance :   1.0000e-08
  Last MAX-Density change    ...    5.6005e-04  Tolerance :   1.0000e-07
[...]
   35   0.000000   0.000000  -0.604267   0.687486   0.000000   0.000000   0.000000   0.000000   0.000000   0.000000

              30         31         32         33         34         35
           6-B2u      6-B1g       5-Ag      5-B3u      6-B3u       6-Ag
    0   0.000000   0.000000   0.017994  -0.045572  -0.061680  -0.061901
    1  -0.000158   0.058870   0.000000   0.000000   0.000000   0.000000
    2   0.000000   0.000000   0.000000   0.000000   0.000000   0.000000
    3  -0.257877   0.176813  -0.256826   0.201272   0.001327   0.000789
    4   0.274687  -0.338196   0.326746  -0.369325   0.001565   0.002104
    5   0.000000   0.000000   0.000000   0.000000   0.000000   0.000000
    6   0.257877   0.176813   0.256826   0.201272   0.001327  -0.000789
    7   0.274687   0.338196   0.326746   0.369325  -0.001565   0.002104
    8   0.000000   0.000000   0.000000   0.000000   0.000000   0.000000
    9   0.000000   0.000000  -0.017994  -0.045572  -0.061680   0.061901
   10  -0.000158  -0.058870   0.000000   0.000000   0.000000   0.000000
   11   0.000000   0.000000   0.000000   0.000000   0.000000   0.000000
   12  -0.257877  -0.176813   0.256826   0.201272   0.001327  -0.000789
   13   0.274687   0.338196  -0.326746  -0.369325   0.001565  -0.002104
   14   0.000000   0.000000   0.000000   0.000000   0.000000   0.000000
   15   0.257877  -0.176813  -0.256826   0.201272   0.001327   0.000789
   16   0.274687  -0.338196  -0.326746   0.369325  -0.001565  -0.002104
   17   0.000000   0.000000   0.000000   0.000000   0.000000   0.000000
   18   0.137335  -0.119201   0.147186  -0.132887  -0.000034   0.000048
   19  -0.215375   0.210568  -0.235478   0.231890  -0.000198  -0.000352
   20   0.000000   0.000000   0.000000   0.000000   0.000000   0.000000
   21  -0.137335  -0.119201  -0.147186  -0.132887  -0.000034  -0.000048
   22  -0.215375  -0.210568  -0.235478  -0.231890   0.000198  -0.000352
   23   0.000000   0.000000   0.000000   0.000000   0.000000   0.000000
   24   0.137335   0.119201  -0.147186  -0.132887  -0.000034  -0.000048
   25  -0.215375  -0.210568   0.235478   0.231890  -0.000198   0.000352
   26   0.000000   0.000000   0.000000   0.000000   0.000000   0.000000
   27  -0.137335   0.119201   0.147186  -0.132887  -0.000034   0.000048
   28  -0.215375   0.210568   0.235478  -0.231890   0.000198   0.000352
   29   0.000000   0.000000   0.000000   0.000000   0.000000   0.000000
   30   0.000000   0.000000  -0.001614  -0.035172   0.704405   0.704385
   31   0.292572  -0.296917   0.000000   0.000000   0.000000   0.000000
   32   0.000000   0.000000   0.000000   0.000000   0.000000   0.000000
   33   0.000000   0.000000   0.001614  -0.035172   0.704405  -0.704385
   34   0.292572   0.296917   0.000000   0.000000   0.000000   0.000000
   35   0.000000   0.000000   0.000000   0.000000   0.000000   0.000000



-----------
IR SPECTRUM
-----------

 Mode   freq       eps      Int      T**2         TX        TY        TZ
       cm**-1   L/(mol*cm) km/mol    a.u.
----------------------------------------------------------------------------
  6:     14.93   0.000000    0.00  0.000000  (-0.000009 -0.000011 -0.000003)
  7:     42.06   0.000000    0.00  0.000000  (-0.000030  0.000002 -0.000043)
  8:     61.00   0.008992   45.44  0.046001  (-0.000022  0.000000  0.214479)
  9:    323.54   0.000000    0.00  0.000000  (-0.000000  0.000000  0.000000)
 10:    328.08   0.002510   12.69  0.002388  ( 0.000009 -0.000000  0.048866)
 11:    362.31   0.002889   14.60  0.002488  ( 0.000000  0.049883  0.000000)
 12:    383.05   0.002411   12.19  0.001965  ( 0.044323  0.000000 -0.000000)
 13:    386.57   0.000000    0.00  0.000000  (-0.000001 -0.000002 -0.000000)
 14:    398.70   0.000000    0.00  0.000000  ( 0.000000  0.000000  0.000000)
 15:    462.82   0.000000    0.00  0.000000  (-0.000000  0.000000 -0.000000)
 16:    588.43   0.000000    0.00  0.000000  (-0.000009 -0.000003 -0.000016)
 17:    646.52   0.000000    0.00  0.000000  (-0.000000  0.000000  0.000000)
 18:    676.98   0.000000    0.00  0.000000  ( 0.000000 -0.000005  0.000000)
 19:    698.72   0.000000    0.00  0.000000  ( 0.000000 -0.000000  0.000000)
 20:    768.84   0.013876   70.12  0.005632  ( 0.075047  0.000000  0.000000)
 21:    834.28   0.001278    6.46  0.000478  (-0.000001 -0.021862  0.000000)
 22:    880.81   0.000000    0.00  0.000000  (-0.000005  0.000001 -0.000008)
 23:    926.68   0.008164   41.26  0.002749  (-0.000010 -0.000002  0.052433)
 24:   1131.70   0.075777  382.95  0.020895  (-0.144552  0.000000 -0.000000)
 25:   1177.53   0.000000    0.00  0.000000  ( 0.000000 -0.000000 -0.000000)
 26:   1284.52   0.008195   41.42  0.001991  (-0.000000 -0.044621 -0.000000)
 27:   1355.30   0.000000    0.00  0.000000  ( 0.000000  0.000000  0.000000)
 28:   1363.52   0.020159  101.88  0.004614  (-0.000001  0.067925  0.000000)
 29:   1387.92   0.000000    0.00  0.000000  (-0.000000  0.000000  0.000000)
 30:   1659.39   0.226698  1145.64  0.042633  (-0.000000  0.206477  0.000000)
 31:   1680.40   0.000000    0.00  0.000000  ( 0.000000 -0.000000  0.000000)
 32:   1714.47   0.000000    0.00  0.000000  (-0.000000 -0.000000  0.000000)
 33:   1714.77   0.096560  487.97  0.017572  ( 0.132561 -0.000000  0.000000)
 34:   3189.11   0.004151   20.98  0.000406  ( 0.020153  0.000000  0.000000)
 35:   3189.89   0.000000    0.00  0.000000  (-0.000000  0.000000 -0.000000)

* The epsilon (eps) is given for a Dirac delta lineshape.
** The dipole moment derivative (T) already includes vibrational overlap.

The first frequency considered to be a vibration is 6
The total number of vibrations considered is 30


--------------------------
THERMOCHEMISTRY AT 298.15K
--------------------------

Temperature         ...   298.15 K
Pressure            ...     1.00 atm
Total Mass          ...   138.08 AMU
Quasi RRHO          ...     True
Cut-Off Frequency   ...     1.00 cm^-1

Throughout the following assumptions are being made:
  (1) The electronic state is orbitally nondegenerate
  (2) There are no thermally accessible electronically excited states
  (3) Hindered rotations indicated by low frequency modes are not
      treated as such but are treated as vibrations and this may
      cause some error
  (4) All equations used are the standard statistical mechanics
      equations for an ideal gas
  (5) All vibrations are strictly harmonic

freq.      14.93  E(vib)   ...       0.57 
freq.      42.06  E(vib)   ...       0.53 
freq.      61.00  E(vib)   ...       0.51 
freq.     323.54  E(vib)   ...       0.25 
freq.     328.08  E(vib)   ...       0.24 
freq.     362.31  E(vib)   ...       0.22 
freq.     383.05  E(vib)   ...       0.20 
freq.     386.57  E(vib)   ...       0.20 
freq.     398.70  E(vib)   ...       0.19 
freq.     462.82  E(vib)   ...       0.16 
freq.     588.43  E(vib)   ...       0.10 
freq.     646.52  E(vib)   ...       0.09 
freq.     676.98  E(vib)   ...       0.08 
freq.     698.72  E(vib)   ...       0.07 
freq.     768.84  E(vib)   ...       0.06 
freq.     834.28  E(vib)   ...       0.04 
freq.     880.81  E(vib)   ...       0.04 
freq.     926.68  E(vib)   ...       0.03 
freq.    1131.70  E(vib)   ...       0.01 
freq.    1177.53  E(vib)   ...       0.01 
freq.    1284.52  E(vib)   ...       0.01 
freq.    1355.30  E(vib)   ...       0.01 
freq.    1363.52  E(vib)   ...       0.01 
freq.    1387.92  E(vib)   ...       0.00 
freq.    1659.39  E(vib)   ...       0.00 
freq.    1680.40  E(vib)   ...       0.00 
freq.    1714.47  E(vib)   ...       0.00 
freq.    1714.77  E(vib)   ...       0.00 
freq.    3189.11  E(vib)   ...       0.00 
freq.    3189.89  E(vib)   ...       0.00 

------------
INNER ENERGY
------------

The inner energy is: U= E(el) + E(ZPE) + E(vib) + E(rot) + E(trans)
    E(el)   - is the total energy from the electronic structure calculation
              = E(kin-el) + E(nuc-el) + E(el-el) + E(nuc-nuc)
    E(ZPE)  - the the zero temperature vibrational energy from the frequency calculation
    E(vib)  - the the finite temperature correction to E(ZPE) due to population
              of excited vibrational states
    E(rot)  - is the rotational thermal energy
    E(trans)- is the translational thermal energy

Summary of contributions to the inner energy U:
Electronic energy                ...   -530.00559424 Eh
Zero point energy                ...      0.06750858 Eh      42.36 kcal/mol
Thermal vibrational correction   ...      0.00580094 Eh       3.64 kcal/mol
Thermal rotational correction    ...      0.00141627 Eh       0.89 kcal/mol
Thermal translational correction ...      0.00141627 Eh       0.89 kcal/mol
-----------------------------------------------------------------------
Total thermal energy                   -529.92945217 Eh


Summary of corrections to the electronic energy:
(perhaps to be used in another calculation)
Total thermal correction                  0.00863348 Eh       5.42 kcal/mol
Non-thermal (ZPE) correction              0.06750858 Eh      42.36 kcal/mol
-----------------------------------------------------------------------
Total correction                          0.07614206 Eh      47.78 kcal/mol


--------
ENTHALPY
--------

The enthalpy is H = U + kB*T
                kB is Boltzmann's constant
Total thermal energy              ...   -529.92945217 Eh 
Thermal Enthalpy correction       ...      0.00094421 Eh       0.59 kcal/mol
-----------------------------------------------------------------------
Total Enthalpy                    ...   -529.92850797 Eh


Note: Rotational entropy computed according to Herzberg 
Infrared and Raman Spectra, Chapter V,1, Van Nostrand Reinhold, 1945 
Point Group:  D2h, Symmetry Number:   4  
Rotational constants in cm-1:     0.079198     0.039154     0.026201 

Vibrational entropy computed according to the QRRHO of S. Grimme
Chem.Eur.J. 2012 18 9955 using a reference frequency of 100.0 cm-1


-------
ENTROPY
-------

The entropy contributions are T*S = T*(S(el)+S(vib)+S(rot)+S(trans))
     S(el)   - electronic entropy
     S(vib)  - vibrational entropy
     S(rot)  - rotational entropy
     S(trans)- translational entropy
The entropies will be listed as multiplied by the temperature to get
units of energy

Electronic entropy                ...      0.00000000 Eh      0.00 kcal/mol
Vibrational entropy               ...      0.01037233 Eh      6.51 kcal/mol
Rotational entropy                ...      0.01264805 Eh      7.94 kcal/mol
Translational entropy             ...      0.01932820 Eh     12.13 kcal/mol
-----------------------------------------------------------------------
Final entropy term                ...      0.04234858 Eh     26.57 kcal/mol

In case the symmetry of your molecule has not been determined correctly
or in case you have a reason to use a different symmetry number we print 
out the resulting rotational entropy values for sn=1,12:

 non-linear molecules -----------------------------------
|  sn= 1 | S(rot)=       0.01395697 Eh      8.76 kcal/mol|
|  sn= 2 | S(rot)=       0.01330251 Eh      8.35 kcal/mol|
|  sn= 3 | S(rot)=       0.01291968 Eh      8.11 kcal/mol|
|  sn= 4 | S(rot)=       0.01264805 Eh      7.94 kcal/mol|
|  sn= 5 | S(rot)=       0.01243737 Eh      7.80 kcal/mol|
|  sn= 6 | S(rot)=       0.01226522 Eh      7.70 kcal/mol|
|  sn= 7 | S(rot)=       0.01211967 Eh      7.61 kcal/mol|
|  sn= 8 | S(rot)=       0.01199360 Eh      7.53 kcal/mol|
|  sn= 9 | S(rot)=       0.01188239 Eh      7.46 kcal/mol|
|  sn=10 | S(rot)=       0.01178291 Eh      7.39 kcal/mol|
|  sn=11 | S(rot)=       0.01169292 Eh      7.34 kcal/mol|
|  sn=12 | S(rot)=       0.01161076 Eh      7.29 kcal/mol|
 linear molecules ---------------------------------------
|  Dinfh | S(rot)=       0.00876448 Eh      5.50 kcal/mol|
|  Cinfv | S(rot)=       0.00941894 Eh      5.91 kcal/mol|
 --------------------------------------------------------


-------------------
GIBBS FREE ENERGY
-------------------

The Gibbs free energy is G = H - T*S

Total enthalpy                    ...   -529.92850797 Eh 
Total entropy correction          ...     -0.04234858 Eh    -26.57 kcal/mol
-----------------------------------------------------------------------
Final Gibbs free energy         ...   -529.97085655 Eh

For completeness - the Gibbs free energy minus the electronic energy
G-E(el)                           ...      0.03473769 Eh     21.80 kcal/mol


Maximum memory used throughout the entire PROP-calculation: 53.5 MB

--------------------------------
SUGGESTED CITATIONS FOR THIS RUN
--------------------------------

Below you find a list of papers that are relevant to this ORCA run
We neither can nor want to force you to cite these papers, but we appreciate if you do
You receive ORCA, which is the product of decades of hard work by many enthusiastic individuals, for free
The only thing we kindly ask in return is that you cite our papers,
We deeply appreciate it, if you show your appreciation for ORCA by not just citing the generic ORCA reference.

Please note that relegating all ORCA citations to the supporting information does *not* help us.
SI sections are not indexed - citations you put there will not count into any citation statistics
But we need these citations in order to attract the funding resources that allow us to do what we are doing

Therefore, if you are a happy ORCA user, please consider citing a few of the papers listed below in the main body of your paper

In addition to the list printed below, the program has created the file tetraoxolene.bibtex that contains the list in bibtex format
You can import this file easily into all common literature databanks and citation aid programs


List of essential papers. We consider these as the minimum necessary citations

  1. Neese, F.
     Software update: the ORCA program system, version 6.0
     WIRES Comput. Molec. Sci. 2025 15(1), e70019
     doi.org/10.1002/wcms.7019

List of papers to cite with high priority. The work reported in these papers was absolutely
necessary for this run to complete.
Our perspective: the developers of density functionals and basis sets usually get cited in chemistry papers
Good! But without the algorithms to do something with them, the functionals or basis sets would not do anything.
Hence, in our opinion, the algorithm design and method developments papers are equally worthy of getting cited

  1. Neese, F.
     An improvement of the resolution of the identity approximation for the formation of the Coulomb matrix
     J. Comp. Chem. 2003 24(14), 1740-1747
     doi.org/10.1002/jcc.10318
  2. Neese, F.; Wennmohs, F.; Hansen, A.; Becker, U.
     Efficient, approximate and parallel Hartree-Fock and hybrid DFT calculations. A 'chain-of-spheres' algorithm for the Hartree-Fock exchange
     Chem. Phys. 2009 356(1-3), 98-109
     doi.org/10.1016/j.chemphys.2008.10.036
  3. Bykov, D.; Petrenko, T.; Izsak, R.; Kossmann, S.; Becker, U.; Valeev, E.; Neese, F.
     Efficient implementation of the analytic second derivatives of Hartree-Fock and hybrid DFT energies: a detailed analysis of different approximations
     Molec. Phys. 2015 113 , 1961-1977
     doi.org/10.1080/00268976.2015.1025114
  4. Caldeweyher, E.; Bannwarth, C.; Grimme, S.
     Extension of the D3 dispersion coefficient model
     J. Chem. Phys. 2017 147 , 034112
     doi.org/10.1063/1.4993215
  5. Stoychev, G.L.; Auer, A.A.; Neese, F.
     Automatic Generation of Auxiliary Basis Sets
     J. Theo. Comp. Chem. 2017 13 , 554-562
     doi.org/10.1021/acs.jctc.6b01041
  6. Caldeweyher, E.; Ehlert, S.; Hansen, A.; Neugebauer, H.; Spicher, S.; Bannwarth, C.; Grimme, S.
     A generally applicable atomic-charge dependent London dispersion correction
     J. Chem. Phys. 2019 150 , 154122
     doi.org/10.1063/1.5090222
  7. Garcia-Rates, M.; Neese, F.
     Efficient implementation of the analytical second derivatives of hartree-fock and hybrid DFT energies within the framework of the conductor-like polarizable continuum model
     J. Comput. Chem. 2019 40 , 1816-1828
     doi.org/10.1002/jcc.25833
  8. Caldeweyher, E.; Mewes, J.; Ehlert, S.; Grimme, S.
     Extension and evaluation of the D4 London-dispersion model for periodic systems
     Phys. Chem. Chem. Phys. 2020 22(16), 8499-8512
     doi.org/10.1039/D0CP00502A
  9. Garcia-Rates, M.; Neese, F.
     Effect of the Solute Cavity on the Solvation Energy and its Derivatives within the Framework of the Gaussian Charge Scheme
     J. Comput. Chem. 2020 41 , 922-939
     doi.org/10.1002/jcc.26139
 10. Helmich-Paris, B.; de Souza, B.; Neese, F.; Izsák, R.
     An improved chain of spheres for exchange algorithm
     J. Chem. Phys. 2021 155(10), 104109
     doi.org/10.1063/5.0058766
 11. Neese, F.
     The SHARK Integral Generation and Digestion System
     J. Comp. Chem. 2022 44(3), 381
     doi.org/10.1002/jcc.26942
 12. Wittmann, L.; Gordiy, I.; Friede, M.; Helmich-Paris, B.; Grimme, S.; Hansen, A.; Bursch, M.
     Extension of the D3 and D4 London Dispersion Corrections to the full Actinides Series
     Phys. Chem. Chem. Phys. 2024 26(32), 21379-21394
     doi.org/10.1039/D4CP01514B

List of suggested additional citations. These are papers that are important in the 'surrounding' of 
of this run, or papers that preceded the highly important papers. If you like your results we are grateful for a citation.

  1. Izsak, R.; Neese, F.
     An overlap fitted chain of spheres exchange method
     J. Chem. Phys. 2011 135 , 144105
     doi.org/10.1063/1.3646921
  2. Izsak, R.; Hansen, A.; Neese, F.
     The resolution of identity and chain of spheres approximations for the LPNO-CCSD singles Fock term
     Molec. Phys. 2012 110 , 2413-2417
     doi.org/10.1080/00268976.2012.687466
  3. Neese, F.
     The ORCA program system
     WIRES Comput. Molec. Sci. 2012 2(1), 73-78
     doi.org/10.1002/wcms.81
  4. Izsak, R.; Neese, F.; Klopper, W.
     Robust fitting techniques in the chain of spheres approximation to the Fock exchange: The role of the complementary space
     J. Chem. Phys. 2013 139 , 
     doi.org/10.1063/1.4819264
  5. Neese, F.
     Software update: the ORCA program system, version 4.0
     WIRES Comput. Molec. Sci. 2018 8(1), 1-6
     doi.org/10.1002/wcms.1327
  6. Neese, F.; Wennmohs, F.; Becker, U.; Riplinger, C.
     The ORCA quantum chemistry program package
     J. Chem. Phys. 2020 152(22), 224108
     doi.org/10.1063/5.0004608
  7. Neese, F.
     Software update: The ORCA program system—Version 5.0
     WIRES Comput. Molec. Sci. 2022 12(1), e1606
     doi.org/10.1002/wcms.1606

List of optional additional citations

  1. Neese, F.
     Approximate second-order SCF convergence for spin unrestricted wavefunctions
     Chem. Phys. Lett. 2000 325(1-3), 93-98
     doi.org/10.1016/s0009-2614(00)00662-x

Timings for individual modules:

Sum of individual times          ...      518.053 sec (=   8.634 min)
Startup calculation              ...       22.589 sec (=   0.376 min)   4.4 %
SCF iterations                   ...      165.674 sec (=   2.761 min)  32.0 %
Property integrals               ...       53.666 sec (=   0.894 min)  10.4 %
SCF Response                     ...       54.376 sec (=   0.906 min)  10.5 %
Property calculations            ...      129.630 sec (=   2.161 min)  25.0 %
SCF Gradient evaluation          ...       92.019 sec (=   1.534 min)  17.8 %
Geometry relaxation              ...        0.099 sec (=   0.002 min)   0.0 %
                             ****ORCA TERMINATED NORMALLY****
TOTAL RUN TIME: 0 days 0 hours 8 minutes 39 seconds 951 msec
